<VTKFile type="PolyData">
<PolyData>
<Piece NumberOfPoints="3555" NumberOfVerts="0" NumberOfLines="0" NumberOfStrips="0" NumberOfPolys="288">
<Points>
<DataArray type="Float32" NumberOfComponents="3" format="ascii">
0.5 0 -0.0625 0.46875 0 -0.0625 0.4375 0
-0.0625 0.40625 0 -0.0625 0.375 0 -0.0625 0.34375
0 -0.0625 0.3125 0 -0.0625 0.28125 0 -0.0625
0.25 0 -0.0625 0.21875 0 -0.0625 0.1875 0
-0.0625 0.15625 0 -0.0625 0.125 0 -0.0625 0.09375
0 -0.0625 0.0625 0 -0.0625 0.03125 0 -0.0625
0 0 -0.0625 -0.03125 0 -0.0625 -0.0625 0
-0.0625 -0.09375 0 -0.0625 -0.125 0 -0.0625 -0.15625
0 -0.0625 -0.1875 0 -0.0625 -0.21875 0 -0.0625
-0.25 0 -0.0625 -0.28125 0 -0.0625 -0.3125 0
-0.0625 -0.34375 0 -0.0625 -0.375 0 -0.0625 -0.40625
0 -0.0625 -0.4375 0 -0.0625 -0.46875 0 -0.0625
-0.5 0 -0.0625 0.5 0 -0.0546875 0.46875 0.00141907
-0.0546875 0.4375 0.00274658 -0.0546875 0.40625 0.00398254 -0.0546875 0.375
0.00512695 -0.0546875 0.34375 0.00617981 -0.0546875 0.3125 0.00714111 -0.0546875
0.28125 0.00801086 -0.0546875 0.25 0.00878906 -0.0546875 0.21875 0.00947571
-0.0546875 0.1875 0.0100708 -0.0546875 0.15625 0.0105743 -0.0546875 0.125
0.0109863 -0.0546875 0.09375 0.0113068 -0.0546875 0.0625 0.0115356 -0.0546875
0.03125 0.011673 -0.0546875 0 0.0117188 -0.0546875 -0.03125 0.011673
-0.0546875 -0.0625 0.0115356 -0.0546875 -0.09375 0.0113068 -0.0546875 -0.125
0.0109863 -0.0546875 -0.15625 0.0105743 -0.0546875 -0.1875 0.0100708 -0.0546875
-0.21875 0.00947571 -0.0546875 -0.25 0.00878906 -0.0546875 -0.28125 0.00801086
-0.0546875 -0.3125 0.00714111 -0.0546875 -0.34375 0.00617981 -0.0546875 -0.375
0.00512695 -0.0546875 -0.40625 0.00398254 -0.0546875 -0.4375 0.00274658 -0.0546875
-0.46875 0.00141907 -0.0546875 -0.5 0 -0.0546875 0.5 0
-0.046875 0.46875 0.00264893 -0.046875 0.4375 0.00512695 -0.046875 0.40625
0.00743408 -0.046875 0.375 0.00957031 -0.046875 0.34375 0.0115356 -0.046875
0.3125 0.0133301 -0.046875 0.28125 0.0149536 -0.046875 0.25 0.0164063
-0.046875 0.21875 0.017688 -0.046875 0.1875 0.0187988 -0.046875 0.15625
0.0197388 -0.046875 0.125 0.0205078 -0.046875 0.09375 0.021106 -0.046875
0.0625 0.0215332 -0.046875 0.03125 0.0217896 -0.046875 0 0.021875
-0.046875 -0.03125 0.0217896 -0.046875 -0.0625 0.0215332 -0.046875 -0.09375
0.021106 -0.046875 -0.125 0.0205078 -0.046875 -0.15625 0.0197388 -0.046875
-0.1875 0.0187988 -0.046875 -0.21875 0.017688 -0.046875 -0.25 0.0164063
-0.046875 -0.28125 0.0149536 -0.046875 -0.3125 0.0133301 -0.046875 -0.34375
0.0115356 -0.046875 -0.375 0.00957031 -0.046875 -0.40625 0.00743408 -0.046875
-0.4375 0.00512695 -0.046875 -0.46875 0.00264893 -0.046875 -0.5 0
-0.046875 0.5 0 -0.0390625 0.46875 0.00368958 -0.0390625 0.4375
0.00714111 -0.0390625 0.40625 0.0103546 -0.0390625 0.375 0.0133301 -0.0390625
0.34375 0.0160675 -0.0390625 0.3125 0.0185669 -0.0390625 0.28125 0.0208282
-0.0390625 0.25 0.0228516 -0.0390625 0.21875 0.0246368 -0.0390625 0.1875
0.0261841 -0.0390625 0.15625 0.0274933 -0.0390625 0.125 0.0285645 -0.0390625
0.09375 0.0293976 -0.0390625 0.0625 0.0299927 -0.0390625 0.03125 0.0303497
-0.0390625 0 0.0304688 -0.0390625 -0.03125 0.0303497 -0.0390625 -0.0625
0.0299927 -0.0390625 -0.09375 0.0293976 -0.0390625 -0.125 0.0285645 -0.0390625
-0.15625 0.0274933 -0.0390625 -0.1875 0.0261841 -0.0390625 -0.21875 0.0246368
-0.0390625 -0.25 0.0228516 -0.0390625 -0.28125 0.0208282 -0.0390625 -0.3125
0.0185669 -0.0390625 -0.34375 0.0160675 -0.0390625 -0.375 0.0133301 -0.0390625
-0.40625 0.0103546 -0.0390625 -0.4375 0.00714111 -0.0390625 -0.46875 0.00368958
-0.0390625 -0.5 0 -0.0390625 0.5 0 -0.03125 0.46875
0.00454102 -0.03125 0.4375 0.00878906 -0.03125 0.40625 0.0127441 -0.03125
0.375 0.0164063 -0.03125 0.34375 0.0197754 -0.03125 0.3125 0.0228516
-0.03125 0.28125 0.0256348 -0.03125 0.25 0.028125 -0.03125 0.21875
0.0303223 -0.03125 0.1875 0.0322266 -0.03125 0.15625 0.0338379 -0.03125
0.125 0.0351563 -0.03125 0.09375 0.0361816 -0.03125 0.0625 0.0369141
-0.03125 0.03125 0.0373535 -0.03125 0 0.0375 -0.03125 -0.03125
0.0373535 -0.03125 -0.0625 0.0369141 -0.03125 -0.09375 0.0361816 -0.03125
-0.125 0.0351563 -0.03125 -0.15625 0.0338379 -0.03125 -0.1875 0.0322266
-0.03125 -0.21875 0.0303223 -0.03125 -0.25 0.028125 -0.03125 -0.28125
0.0256348 -0.03125 -0.3125 0.0228516 -0.03125 -0.34375 0.0197754 -0.03125
-0.375 0.0164063 -0.03125 -0.40625 0.0127441 -0.03125 -0.4375 0.00878906
-0.03125 -0.46875 0.00454102 -0.03125 -0.5 0 -0.03125 0.5
0 -0.0234375 0.46875 0.00520325 -0.0234375 0.4375 0.0100708 -0.0234375
0.40625 0.0146027 -0.0234375 0.375 0.0187988 -0.0234375 0.34375 0.0226593
-0.0234375 0.3125 0.0261841 -0.0234375 0.28125 0.0293732 -0.0234375 0.25
0.0322266 -0.0234375 0.21875 0.0347443 -0.0234375 0.1875 0.0369263 -0.0234375
0.15625 0.0387726 -0.0234375 0.125 0.0402832 -0.0234375 0.09375 0.0414581
-0.0234375 0.0625 0.0422974 -0.0234375 0.03125 0.0428009 -0.0234375 0
0.0429688 -0.0234375 -0.03125 0.0428009 -0.0234375 -0.0625 0.0422974 -0.0234375
-0.09375 0.0414581 -0.0234375 -0.125 0.0402832 -0.0234375 -0.15625 0.0387726
-0.0234375 -0.1875 0.0369263 -0.0234375 -0.21875 0.0347443 -0.0234375 -0.25
0.0322266 -0.0234375 -0.28125 0.0293732 -0.0234375 -0.3125 0.0261841 -0.0234375
-0.34375 0.0226593 -0.0234375 -0.375 0.0187988 -0.0234375 -0.40625 0.0146027
-0.0234375 -0.4375 0.0100708 -0.0234375 -0.46875 0.00520325 -0.0234375 -0.5
0 -0.0234375 0.5 0 -0.015625 0.46875 0.00567627 -0.015625
0.4375 0.0109863 -0.015625 0.40625 0.0159302 -0.015625 0.375 0.0205078
-0.015625 0.34375 0.0247192 -0.015625 0.3125 0.0285645 -0.015625 0.28125
0.0320435 -0.015625 0.25 0.0351563 -0.015625 0.21875 0.0379028 -0.015625
0.1875 0.0402832 -0.015625 0.15625 0.0422974 -0.015625 0.125 0.0439453
-0.015625 0.09375 0.0452271 -0.015625 0.0625 0.0461426 -0.015625 0.03125
0.0466919 -0.015625 0 0.046875 -0.015625 -0.03125 0.0466919 -0.015625
-0.0625 0.0461426 -0.015625 -0.09375 0.0452271 -0.015625 -0.125 0.0439453
-0.015625 -0.15625 0.0422974 -0.015625 -0.1875 0.0402832 -0.015625 -0.21875
0.0379028 -0.015625 -0.25 0.0351563 -0.015625 -0.28125 0.0320435 -0.015625
-0.3125 0.0285645 -0.015625 -0.34375 0.0247192 -0.015625 -0.375 0.0205078
-0.015625 -0.40625 0.0159302 -0.015625 -0.4375 0.0109863 -0.015625 -0.46875
0.00567627 -0.015625 -0.5 0 -0.015625 0.5 0 -0.0078125
0.46875 0.00596008 -0.0078125 0.4375 0.0115356 -0.0078125 0.40625 0.0167267
-0.0078125 0.375 0.0215332 -0.0078125 0.34375 0.0259552 -0.0078125 0.3125
0.0299927 -0.0078125 0.28125 0.0336456 -0.0078125 0.25 0.0369141 -0.0078125
0.21875 0.039798 -0.0078125 0.1875 0.0422974 -0.0078125 0.15625 0.0444122
-0.0078125 0.125 0.0461426 -0.0078125 0.09375 0.0474884 -0.0078125 0.0625
0.0484497 -0.0078125 0.03125 0.0490265 -0.0078125 0 0.0492188 -0.0078125
-0.03125 0.0490265 -0.0078125 -0.0625 0.0484497 -0.0078125 -0.09375 0.0474884
-0.0078125 -0.125 0.0461426 -0.0078125 -0.15625 0.0444122 -0.0078125 -0.1875
0.0422974 -0.0078125 -0.21875 0.039798 -0.0078125 -0.25 0.0369141 -0.0078125
-0.28125 0.0336456 -0.0078125 -0.3125 0.0299927 -0.0078125 -0.34375 0.0259552
-0.0078125 -0.375 0.0215332 -0.0078125 -0.40625 0.0167267 -0.0078125 -0.4375
0.0115356 -0.0078125 -0.46875 0.00596008 -0.0078125 -0.5 0 -0.0078125
0.5 0 0 0.46875 0.00605469 0 0.4375 0.0117188
0 0.40625 0.0169922 0 0.375 0.021875 0 0.34375
0.0263672 0 0.3125 0.0304688 0 0.28125 0.0341797 0
0.25 0.0375 0 0.21875 0.0404297 0 0.1875 0.0429688
0 0.15625 0.0451172 0 0.125 0.046875 0 0.09375
0.0482422 0 0.0625 0.0492188 0 0.03125 0.0498047 0
0 0.05 0 -0.03125 0.0498047 0 -0.0625 0.0492188
0 -0.09375 0.0482422 0 -0.125 0.046875 0 -0.15625
0.0451172 0 -0.1875 0.0429688 0 -0.21875 0.0404297 0
-0.25 0.0375 0 -0.28125 0.0341797 0 -0.3125 0.0304688
0 -0.34375 0.0263672 0 -0.375 0.021875 0 -0.40625
0.0169922 0 -0.4375 0.0117188 0 -0.46875 0.00605469 0
-0.5 0 0 0.5 0 0.0203125 0.46875 0.00605469
0.0203125 0.4375 0.0117188 0.0203125 0.40625 0.0169922 0.0203125 0.375
0.021875 0.0203125 0.34375 0.0263672 0.0203125 0.3125 0.0304688 0.0203125
0.28125 0.0341797 0.0203125 0.25 0.0375 0.0203125 0.21875 0.0404297
0.0203125 0.1875 0.0429688 0.0203125 0.15625 0.0451172 0.0203125 0.125
0.046875 0.0203125 0.09375 0.0482422 0.0203125 0.0625 0.0492188 0.0203125
0.03125 0.0498047 0.0203125 0 0.05 0.0203125 -0.03125 0.0498047
0.0203125 -0.0625 0.0492188 0.0203125 -0.09375 0.0482422 0.0203125 -0.125
0.046875 0.0203125 -0.15625 0.0451172 0.0203125 -0.1875 0.0429688 0.0203125
-0.21875 0.0404297 0.0203125 -0.25 0.0375 0.0203125 -0.28125 0.0341797
0.0203125 -0.3125 0.0304688 0.0203125 -0.34375 0.0263672 0.0203125 -0.375
0.021875 0.0203125 -0.40625 0.0169922 0.0203125 -0.4375 0.0117188 0.0203125
-0.46875 0.00605469 0.0203125 -0.5 0 0.0203125 1 0
0.0203125 0.96875 0 0.0203125 0.9375 0 0.0203125 0.90625
0 0.0203125 0.875 0 0.0203125 0.84375 0 0.0203125
0.8125 0 0.0203125 0.78125 0 0.0203125 0.75 0
0.0203125 0.71875 0 0.0203125 0.6875 0 0.0203125 0.65625
0 0.0203125 0.625 0 0.0203125 0.59375 0 0.0203125
0.5625 0 0.0203125 0.53125 0 0.0203125 0.5 0
0.0203125 0.46875 0.00605469 0.0203125 0.4375 0.0117188 0.0203125 0.40625
0.0169922 0.0203125 0.375 0.021875 0.0203125 0.34375 0.0263672 0.0203125
0.3125 0.0304688 0.0203125 0.28125 0.0341797 0.0203125 0.25 0.0375
0.0203125 0.21875 0.0404297 0.0203125 0.1875 0.0429688 0.0203125 0.15625
0.0451172 0.0203125 0.125 0.046875 0.0203125 0.09375 0.0482422 0.0203125
0.0625 0.0492188 0.0203125 0.03125 0.0498047 0.0203125 0 0.05
0.0203125 -0.03125 0.0498047 0.0203125 -0.0625 0.0492188 0.0203125 -0.09375
0.0482422 0.0203125 -0.125 0.046875 0.0203125 -0.15625 0.0451172 0.0203125
-0.1875 0.0429688 0.0203125 -0.21875 0.0404297 0.0203125 -0.25 0.0375
0.0203125 -0.28125 0.0341797 0.0203125 -0.3125 0.0304688 0.0203125 -0.34375
0.0263672 0.0203125 -0.375 0.021875 0.0203125 -0.40625 0.0169922 0.0203125
-0.4375 0.0117188 0.0203125 -0.46875 0.00605469 0.0203125 -0.5 0
0.0203125 -0.53125 0 0.0203125 -0.5625 0 0.0203125 -0.59375
0 0.0203125 -0.625 0 0.0203125 -0.65625 0 0.0203125
-0.6875 0 0.0203125 -0.71875 0 0.0203125 -0.75 0
[...]
<CellData>
<DataArray type="Float32" Name="cp" format="ascii">
0.0669174 0.0412014 0.0310748 0.0217392 0.0105502 -0.00215816 -0.0153739 -0.027993
-0.0390271 -0.0477246 -0.0536475 -0.0566931 -0.0570722 -0.05524 -0.0518153 -0.0474847
-0.0429163 -0.0386973 -0.0352888 -0.0329965 -0.0319674 -0.0322004 -0.0335574 -0.0357898
-0.0385555 -0.0414332 -0.0439064 -0.045286 -0.0444679 -0.0391681 -0.0233536 0.0230623
0.0772576 0.0427476 0.0315789 0.0210519 0.00818666 -0.00628182 -0.0210047 -0.0346957
-0.046305 -0.0551054 -0.0607364 -0.0631983 -0.0628107 -0.0601304 -0.0558642 -0.0507734
-0.0455854 -0.0409313 -0.0372991 -0.0350057 -0.034196 -0.0348565 -0.0368327 -0.0398588
-0.0435772 -0.0475524 -0.0512512 -0.053951 -0.0544648 -0.0502238 -0.0338792 0.0243511
0.0899748 0.0502676 0.0392505 0.0269905 0.0110539 -0.00672604 -0.0243505 -0.0402603
-0.0533318 -0.062868 -0.0686036 -0.0706714 -0.0695372 -0.0659049 -0.0606145 -0.0545422
-0.048508 -0.0432079 -0.0391659 -0.0367074 -0.0359622 -0.0368798 -0.0392578 -0.042776
-0.0470215 -0.0515088 -0.05566 -0.0587182 -0.0594712 -0.055291 -0.0382266 0.0291062
0.101876 0.0620428 0.0529717 0.0388104 0.018878 -0.00331263 -0.0249292 -0.0440493
-0.059404 -0.0702836 -0.076514 -0.0783844 -0.0765459 -0.0718919 -0.0654361 -0.058204
-0.0511342 -0.0450043 -0.0403814 -0.0375975 -0.0367548 -0.0377468 -0.040298 -0.0440072
-0.0483846 -0.0528853 -0.0569029 -0.0597061 -0.060184 -0.0558813 -0.0388235 0.0333611
0.109587 0.0762682 0.0713699 0.0553112 0.0307367 0.00334512 -0.0230602 -0.0461166
-0.0643493 -0.0770125 -0.0840235 -0.0858461 -0.0833427 -0.0776222 -0.0699002 -0.0613753
-0.0531227 -0.0460148 -0.0406696 -0.037427 -0.0363555 -0.037281 -0.0398386 -0.0435326
-0.0477928 -0.0520222 -0.0556192 -0.0579392 -0.0580819 -0.053966 -0.0380801 0.0333105
0.109461 0.0915104 0.0934056 0.0753631 0.0453855 0.0120519 -0.019671 -0.0469978
-0.0683279 -0.082938 -0.0908555 -0.0927105 -0.0895689 -0.0827619 -0.0737185 -0.0638225
-0.0542947 -0.0461127 -0.0399575 -0.0361859 -0.034834 -0.0356528 -0.0381785 -0.0418146
-0.0459112 -0.0498349 -0.0530111 -0.0549199 -0.0549332 -0.0515405 -0.0380513 0.0250719
0.0967531 0.106672 0.11866 0.0982471 0.0614302 0.021099 -0.0162452 -0.0476693
-0.0718249 -0.0881972 -0.0969317 -0.0987734 -0.0949662 -0.0870627 -0.0767028 -0.0654393
-0.0546261 -0.0453526 -0.0383856 -0.0341195 -0.0325646 -0.0333887 -0.0360151 -0.0397396
-0.0438328 -0.0476312 -0.0505916 -0.0523255 -0.0524889 -0.050385 -0.0402068 0.00396879
0.0642225 0.119797 0.147177 0.12369 0.077243 0.028324 -0.014554 -0.0492663
-0.0754893 -0.0930905 -0.102241 -0.103776 -0.0991746 -0.090225 -0.0787042 -0.0662329
-0.0542466 -0.0439635 -0.0362874 -0.0316875 -0.0301475 -0.0312327 -0.0342364 -0.038342
-0.0427435 -0.0467404 -0.0498063 -0.0516624 -0.0522112 -0.0518789 -0.0451751 -0.0367582
-0.0727296 0.145095 0.205568 0.173573 0.106971 0.0410356 -0.0133401 -0.0551794
-0.0845165 -0.101658 -0.108373 -0.107443 -0.101319 -0.0915678 -0.0792675 -0.0656052
-0.0521112 -0.040448 -0.0319493 -0.0272402 -0.026188 -0.0281433 -0.032239 -0.0375704
-0.0432757 -0.0485934 -0.0529537 -0.0561523 -0.0582008 -0.0622096 -0.0576066 -0.17526
</DataArray>
</CellData>
</Piece>
</PolyData>
</VTKFile>
