<VTKFile type="PolyData">
<PolyData>
<Piece NumberOfPoints="3555" NumberOfVerts="0" NumberOfLines="0" NumberOfStrips="0" NumberOfPolys="288">
<Points>
<DataArray type="Float32" NumberOfComponents="3" format="ascii">
0.5 0 -0.0625 0.46875 0 -0.0625 0.4375 0
-0.0625 0.40625 0 -0.0625 0.375 0 -0.0625 0.34375
0 -0.0625 0.3125 0 -0.0625 0.28125 0 -0.0625
0.25 0 -0.0625 0.21875 0 -0.0625 0.1875 0
-0.0625 0.15625 0 -0.0625 0.125 0 -0.0625 0.09375
0 -0.0625 0.0625 0 -0.0625 0.03125 0 -0.0625
0 0 -0.0625 -0.03125 0 -0.0625 -0.0625 0
-0.0625 -0.09375 0 -0.0625 -0.125 0 -0.0625 -0.15625
0 -0.0625 -0.1875 0 -0.0625 -0.21875 0 -0.0625
-0.25 0 -0.0625 -0.28125 0 -0.0625 -0.3125 0
-0.0625 -0.34375 0 -0.0625 -0.375 0 -0.0625 -0.40625
0 -0.0625 -0.4375 0 -0.0625 -0.46875 0 -0.0625
-0.5 0 -0.0625 0.5 0 -0.0546875 0.46875 0.000842573
-0.0546875 0.4375 0.00163078 -0.0546875 0.40625 0.00236463 -0.0546875 0.375
0.00304413 -0.0546875 0.34375 0.00366926 -0.0546875 0.3125 0.00424003 -0.0546875
0.28125 0.00475645 -0.0546875 0.25 0.0052185 -0.0546875 0.21875 0.0056262
-0.0546875 0.1875 0.00597954 -0.0546875 0.15625 0.00627849 -0.0546875 0.125
0.00652312 -0.0546875 0.09375 0.00671341 -0.0546875 0.0625 0.00684926 -0.0546875
0.03125 0.00693084 -0.0546875 0 0.00695804 -0.0546875 -0.03125 0.00693084
-0.0546875 -0.0625 0.00684926 -0.0546875 -0.09375 0.00671341 -0.0546875 -0.125
0.00652312 -0.0546875 -0.15625 0.00627849 -0.0546875 -0.1875 0.00597954 -0.0546875
-0.21875 0.0056262 -0.0546875 -0.25 0.0052185 -0.0546875 -0.28125 0.00475645
-0.0546875 -0.3125 0.00424003 -0.0546875 -0.34375 0.00366926 -0.0546875 -0.375
0.00304413 -0.0546875 -0.40625 0.00236463 -0.0546875 -0.4375 0.00163078 -0.0546875
-0.46875 0.000842573 -0.0546875 -0.5 0 -0.0546875 0.5 0
-0.046875 0.46875 0.0015728 -0.046875 0.4375 0.00304413 -0.046875 0.40625
0.00441398 -0.046875 0.375 0.00568237 -0.046875 0.34375 0.00684926 -0.046875
0.3125 0.00791475 -0.046875 0.28125 0.0088787 -0.046875 0.25 0.00974124
-0.046875 0.21875 0.0105022 -0.046875 0.1875 0.0111618 -0.046875 0.15625
0.0117199 -0.046875 0.125 0.0121765 -0.046875 0.09375 0.0125317 -0.046875
0.0625 0.0127853 -0.046875 0.03125 0.0129376 -0.046875 0 0.0129883
-0.046875 -0.03125 0.0129376 -0.046875 -0.0625 0.0127853 -0.046875 -0.09375
0.0125317 -0.046875 -0.125 0.0121765 -0.046875 -0.15625 0.0117199 -0.046875
-0.1875 0.0111618 -0.046875 -0.21875 0.0105022 -0.046875 -0.25 0.00974124
-0.046875 -0.28125 0.0088787 -0.046875 -0.3125 0.00791475 -0.046875 -0.34375
0.00684926 -0.046875 -0.375 0.00568237 -0.046875 -0.40625 0.00441398 -0.046875
-0.4375 0.00304413 -0.046875 -0.46875 0.0015728 -0.046875 -0.5 0
-0.046875 0.5 0 -0.0390625 0.46875 0.00219069 -0.0390625 0.4375
0.00424003 -0.0390625 0.40625 0.00614804 -0.0390625 0.375 0.00791475 -0.0390625
0.34375 0.00954008 -0.0390625 0.3125 0.0110241 -0.0390625 0.28125 0.0123667
-0.0390625 0.25 0.0135681 -0.0390625 0.21875 0.0146281 -0.0390625 0.1875
0.0155468 -0.0390625 0.15625 0.0163241 -0.0390625 0.125 0.0169602 -0.0390625
0.09375 0.0174548 -0.0390625 0.0625 0.0178082 -0.0390625 0.03125 0.0180201
-0.0390625 0 0.0180909 -0.0390625 -0.03125 0.0180201 -0.0390625 -0.0625
0.0178082 -0.0390625 -0.09375 0.0174548 -0.0390625 -0.125 0.0169602 -0.0390625
-0.15625 0.0163241 -0.0390625 -0.1875 0.0155468 -0.0390625 -0.21875 0.0146281
-0.0390625 -0.25 0.0135681 -0.0390625 -0.28125 0.0123667 -0.0390625 -0.3125
0.0110241 -0.0390625 -0.34375 0.00954008 -0.0390625 -0.375 0.00791475 -0.0390625
-0.40625 0.00614804 -0.0390625 -0.4375 0.00424003 -0.0390625 -0.46875 0.00219069
-0.0390625 -0.5 0 -0.0390625 0.5 0 -0.03125 0.46875
0.00269623 -0.03125 0.4375 0.0052185 -0.03125 0.40625 0.00756681 -0.03125
0.375 0.00974124 -0.03125 0.34375 0.0117416 -0.03125 0.3125 0.0135681
-0.03125 0.28125 0.0152207 -0.03125 0.25 0.0166992 -0.03125 0.21875
0.0180039 -0.03125 0.1875 0.0191345 -0.03125 0.15625 0.0200913 -0.03125
0.125 0.0208741 -0.03125 0.09375 0.0214828 -0.03125 0.0625 0.0219177
-0.03125 0.03125 0.0221786 -0.03125 0 0.0222656 -0.03125 -0.03125
0.0221786 -0.03125 -0.0625 0.0219177 -0.03125 -0.09375 0.0214828 -0.03125
-0.125 0.0208741 -0.03125 -0.15625 0.0200913 -0.03125 -0.1875 0.0191345
-0.03125 -0.21875 0.0180039 -0.03125 -0.25 0.0166992 -0.03125 -0.28125
0.0152207 -0.03125 -0.3125 0.0135681 -0.03125 -0.34375 0.0117416 -0.03125
-0.375 0.00974124 -0.03125 -0.40625 0.00756681 -0.03125 -0.4375 0.0052185
-0.03125 -0.46875 0.00269623 -0.03125 -0.5 0 -0.03125 0.5
0 -0.0234375 0.46875 0.00308943 -0.0234375 0.4375 0.00597954 -0.0234375
0.40625 0.00867035 -0.0234375 0.375 0.0111618 -0.0234375 0.34375 0.013454
-0.0234375 0.3125 0.0155468 -0.0234375 0.28125 0.0174403 -0.0234375 0.25
0.0191345 -0.0234375 0.21875 0.0206294 -0.0234375 0.1875 0.021925 -0.0234375
0.15625 0.0230212 -0.0234375 0.125 0.0239181 -0.0234375 0.09375 0.0246157
-0.0234375 0.0625 0.0251141 -0.0234375 0.03125 0.025413 -0.0234375 0
0.0255127 -0.0234375 -0.03125 0.025413 -0.0234375 -0.0625 0.0251141 -0.0234375
-0.09375 0.0246157 -0.0234375 -0.125 0.0239181 -0.0234375 -0.15625 0.0230212
-0.0234375 -0.1875 0.021925 -0.0234375 -0.21875 0.0206294 -0.0234375 -0.25
0.0191345 -0.0234375 -0.28125 0.0174403 -0.0234375 -0.3125 0.0155468 -0.0234375
-0.34375 0.013454 -0.0234375 -0.375 0.0111618 -0.0234375 -0.40625 0.00867035
-0.0234375 -0.4375 0.00597954 -0.0234375 -0.46875 0.00308943 -0.0234375 -0.5
0 -0.0234375 0.5 0 -0.015625 0.46875 0.00337029 -0.015625
0.4375 0.00652312 -0.015625 0.40625 0.00945856 -0.015625 0.375 0.0121765
-0.015625 0.34375 0.014677 -0.015625 0.3125 0.0169602 -0.015625 0.28125
0.0190258 -0.015625 0.25 0.0208741 -0.015625 0.21875 0.0225048 -0.015625
0.1875 0.0239181 -0.015625 0.15625 0.0251141 -0.015625 0.125 0.0260925
-0.015625 0.09375 0.0268536 -0.015625 0.0625 0.0273972 -0.015625 0.03125
0.0277233 -0.015625 0 0.027832 -0.015625 -0.03125 0.0277233 -0.015625
-0.0625 0.0273972 -0.015625 -0.09375 0.0268536 -0.015625 -0.125 0.0260925
-0.015625 -0.15625 0.0251141 -0.015625 -0.1875 0.0239181 -0.015625 -0.21875
0.0225048 -0.015625 -0.25 0.0208741 -0.015625 -0.28125 0.0190258 -0.015625
-0.3125 0.0169602 -0.015625 -0.34375 0.014677 -0.015625 -0.375 0.0121765
-0.015625 -0.40625 0.00945856 -0.015625 -0.4375 0.00652312 -0.015625 -0.46875
0.00337029 -0.015625 -0.5 0 -0.015625 0.5 0 -0.0078125
0.46875 0.0035388 -0.0078125 0.4375 0.00684926 -0.0078125 0.40625 0.00993148
-0.0078125 0.375 0.0127853 -0.0078125 0.34375 0.0154109 -0.0078125 0.3125
0.0178082 -0.0078125 0.28125 0.0199771 -0.0078125 0.25 0.0219177 -0.0078125
0.21875 0.0236301 -0.0078125 0.1875 0.0251141 -0.0078125 0.15625 0.0263697
-0.0078125 0.125 0.0273972 -0.0078125 0.09375 0.0281962 -0.0078125 0.0625
0.028767 -0.0078125 0.03125 0.0291095 -0.0078125 0 0.0292237 -0.0078125
-0.03125 0.0291095 -0.0078125 -0.0625 0.028767 -0.0078125 -0.09375 0.0281962
-0.0078125 -0.125 0.0273972 -0.0078125 -0.15625 0.0263697 -0.0078125 -0.1875
0.0251141 -0.0078125 -0.21875 0.0236301 -0.0078125 -0.25 0.0219177 -0.0078125
-0.28125 0.0199771 -0.0078125 -0.3125 0.0178082 -0.0078125 -0.34375 0.0154109
-0.0078125 -0.375 0.0127853 -0.0078125 -0.40625 0.00993148 -0.0078125 -0.4375
0.00684926 -0.0078125 -0.46875 0.0035388 -0.0078125 -0.5 0 -0.0078125
0.5 0 0 0.46875 0.00605469 0 0.4375 0.0117188
0 0.40625 0.0169922 0 0.375 0.021875 0 0.34375
0.0263672 0 0.3125 0.0304688 0 0.28125 0.0341797 0
0.25 0.0375 0 0.21875 0.0404297 0 0.1875 0.0429688
0 0.15625 0.0451172 0 0.125 0.046875 0 0.09375
0.0482422 0 0.0625 0.0492188 0 0.03125 0.0498047 0
0 0.05 0 -0.03125 0.0498047 0 -0.0625 0.0492188
0 -0.09375 0.0482422 0 -0.125 0.046875 0 -0.15625
0.0451172 0 -0.1875 0.0429688 0 -0.21875 0.0404297 0
-0.25 0.0375 0 -0.28125 0.0341797 0 -0.3125 0.0304688
0 -0.34375 0.0263672 0 -0.375 0.021875 0 -0.40625
0.0169922 0 -0.4375 0.0117188 0 -0.46875 0.00605469 0
-0.5 0 0 0.5 0 0.0203125 0.46875 0.00605469
0.0203125 0.4375 0.0117188 0.0203125 0.40625 0.0169922 0.0203125 0.375
0.021875 0.0203125 0.34375 0.0263672 0.0203125 0.3125 0.0304688 0.0203125
0.28125 0.0341797 0.0203125 0.25 0.0375 0.0203125 0.21875 0.0404297
0.0203125 0.1875 0.0429688 0.0203125 0.15625 0.0451172 0.0203125 0.125
0.046875 0.0203125 0.09375 0.0482422 0.0203125 0.0625 0.0492188 0.0203125
0.03125 0.0498047 0.0203125 0 0.05 0.0203125 -0.03125 0.0498047
0.0203125 -0.0625 0.0492188 0.0203125 -0.09375 0.0482422 0.0203125 -0.125
0.046875 0.0203125 -0.15625 0.0451172 0.0203125 -0.1875 0.0429688 0.0203125
-0.21875 0.0404297 0.0203125 -0.25 0.0375 0.0203125 -0.28125 0.0341797
0.0203125 -0.3125 0.0304688 0.0203125 -0.34375 0.0263672 0.0203125 -0.375
0.021875 0.0203125 -0.40625 0.0169922 0.0203125 -0.4375 0.0117188 0.0203125
-0.46875 0.00605469 0.0203125 -0.5 0 0.0203125 1 0
0.0203125 0.96875 0 0.0203125 0.9375 0 0.0203125 0.90625
0 0.0203125 0.875 0 0.0203125 0.84375 0 0.0203125
0.8125 0 0.0203125 0.78125 0 0.0203125 0.75 0
0.0203125 0.71875 0 0.0203125 0.6875 0 0.0203125 0.65625
0 0.0203125 0.625 0 0.0203125 0.59375 0 0.0203125
0.5625 0 0.0203125 0.53125 0 0.0203125 0.5 0
0.0203125 0.46875 0.00605469 0.0203125 0.4375 0.0117188 0.0203125 0.40625
0.0169922 0.0203125 0.375 0.021875 0.0203125 0.34375 0.0263672 0.0203125
0.3125 0.0304688 0.0203125 0.28125 0.0341797 0.0203125 0.25 0.0375
0.0203125 0.21875 0.0404297 0.0203125 0.1875 0.0429688 0.0203125 0.15625
0.0451172 0.0203125 0.125 0.046875 0.0203125 0.09375 0.0482422 0.0203125
0.0625 0.0492188 0.0203125 0.03125 0.0498047 0.0203125 0 0.05
0.0203125 -0.03125 0.0498047 0.0203125 -0.0625 0.0492188 0.0203125 -0.09375
0.0482422 0.0203125 -0.125 0.046875 0.0203125 -0.15625 0.0451172 0.0203125
-0.1875 0.0429688 0.0203125 -0.21875 0.0404297 0.0203125 -0.25 0.0375
0.0203125 -0.28125 0.0341797 0.0203125 -0.3125 0.0304688 0.0203125 -0.34375
0.0263672 0.0203125 -0.375 0.021875 0.0203125 -0.40625 0.0169922 0.0203125
-0.4375 0.0117188 0.0203125 -0.46875 0.00605469 0.0203125 -0.5 0
0.0203125 -0.53125 0 0.0203125 -0.5625 0 0.0203125 -0.59375
0 0.0203125 -0.625 0 0.0203125 -0.65625 0 0.0203125
-0.6875 0 0.0203125 -0.71875 0 0.0203125 -0.75 0
[...]
<CellData>
<DataArray type="Float32" Name="cp" format="ascii">
0.0446002 0.0314205 0.0267908 0.0210819 0.0127635 0.00258968 -0.00824786 -0.0186026
-0.0275172 -0.0343153 -0.0386595 -0.0405541 -0.0402943 -0.038373 -0.0353798 -0.0319058
-0.0284692 -0.0254743 -0.0231907 -0.0217483 -0.0211512 -0.0212988 -0.0220059 -0.0230318
-0.0240995 -0.0249143 -0.0251661 -0.0245036 -0.0224281 -0.017906 -0.00800122 0.0179125
0.0518839 0.0336577 0.0286876 0.0221299 0.012446 0.000823912 -0.0112563 -0.0225065
-0.0319241 -0.0388533 -0.0430224 -0.0445253 -0.0437529 -0.0412848 -0.0377797 -0.0338771
-0.0301244 -0.0269389 -0.0245903 -0.0232005 -0.0227596 -0.0231487 -0.0241639 -0.0255448
-0.0269946 -0.0281985 -0.0288262 -0.0285064 -0.026723 -0.0223785 -0.0120056 0.0205298
0.0598778 0.0380865 0.0334481 0.0259323 0.0144031 0.000740086 -0.0131535 -0.0257862
-0.0360878 -0.0434187 -0.0475794 -0.0487685 -0.0474918 -0.0444385 -0.0403564 -0.03595
-0.0318069 -0.028362 -0.0258852 -0.0244857 -0.0241332 -0.0246818 -0.0258998 -0.0274989
-0.0291562 -0.0305339 -0.0312813 -0.0310154 -0.0292296 -0.0248558 -0.0142003 0.0238261
0.0670998 0.0443184 0.0408047 0.0321518 0.0182826 0.0020801 -0.0140363 -0.0283721
-0.0398056 -0.0477206 -0.0519924 -0.0529292 -0.0511637 -0.0475086 -0.0428159 -0.0378653
-0.0332902 -0.0295442 -0.0268956 -0.0254375 -0.0251141 -0.025748 -0.027075 -0.0287767
-0.0305062 -0.0319097 -0.0326291 -0.0322858 -0.0303984 -0.0259746 -0.0153882 0.0258852
0.0720999 0.0519146 0.0504518 0.0403718 0.0236067 0.00443404 -0.0141643 -0.0303588
-0.0430297 -0.0516054 -0.0560381 -0.056748 -0.0545004 -0.0502404 -0.0449307 -0.0394291
-0.0344138 -0.0303549 -0.027516 -0.0259726 -0.0256409 -0.0263108 -0.0276848 -0.0294156
-0.0311372 -0.0324886 -0.0331228 -0.0326922 -0.0307739 -0.0264874 -0.016446 0.0248235
0.0732448 0.0604416 0.0623574 0.0503766 0.0299913 0.0074424 -0.0137642 -0.0318169
-0.0456918 -0.0548948 -0.0594634 -0.0599339 -0.057209 -0.0523665 -0.0464739 -0.0404579
-0.0350326 -0.0306795 -0.0276569 -0.0260228 -0.0256679 -0.0263511 -0.027744 -0.0294741
-0.0311609 -0.0324446 -0.0330026 -0.03255 -0.030792 -0.0271178 -0.0183984 0.0183677
0.0668808 0.0699631 0.0776351 0.0629681 0.0379885 0.0114921 -0.0125881 -0.0325806
-0.0476274 -0.0573625 -0.0619645 -0.0621338 -0.0589336 -0.0535656 -0.0471742 -0.0407262
-0.0349541 -0.030347 -0.0271627 -0.0254478 -0.0250707 -0.0257611 -0.02716 -0.0288713
-0.0305014 -0.0316953 -0.0321617 -0.0317062 -0.0302515 -0.0278391 -0.0219628 0.00154009
0.0466816 0.0896021 0.101845 0.0776641 0.0416837 0.00698274 -0.0217511 -0.0433711
-0.0579136 -0.0659041 -0.0682495 -0.0661634 -0.0610046 -0.0540843 -0.0465324 -0.0392502
-0.032915 -0.0279918 -0.0247293 -0.0231531 -0.0230835 -0.0241824 -0.0260192 -0.0281315
-0.0300662 -0.0314072 -0.0317975 -0.0309939 -0.028946 -0.0265593 -0.0219964 -0.0293975
-0.0621722 0.10041 0.152073 0.133904 0.0849122 0.03396 -0.00803569 -0.0394788
-0.0604145 -0.0710751 -0.0729145 -0.0686533 -0.0611363 -0.0523697 -0.0434393 -0.0349576
-0.0274642 -0.0215257 -0.0175789 -0.0157253 -0.0156758 -0.0168805 -0.0187205 -0.020639
-0.0221886 -0.0230428 -0.0230164 -0.0221754 -0.0207744 -0.0218798 -0.0178501 -0.132243
</DataArray>
</CellData>
</Piece>
</PolyData>
</VTKFile>
