<VTKFile type="PolyData">
<PolyData>
<Piece NumberOfPoints="3555" NumberOfVerts="0" NumberOfLines="0" NumberOfStrips="0" NumberOfPolys="3360">
<Points>
<DataArray type="Float32" NumberOfComponents="3" format="ascii">
0.5 0 -0.0625 0.46875 0 -0.0625 0.4375 0
-0.0625 0.40625 0 -0.0625 0.375 0 -0.0625 0.34375
0 -0.0625 0.3125 0 -0.0625 0.28125 0 -0.0625
0.25 0 -0.0625 0.21875 0 -0.0625 0.1875 0
-0.0625 0.15625 0 -0.0625 0.125 0 -0.0625 0.09375
0 -0.0625 0.0625 0 -0.0625 0.03125 0 -0.0625
0 0 -0.0625 -0.03125 0 -0.0625 -0.0625 0
-0.0625 -0.09375 0 -0.0625 -0.125 0 -0.0625 -0.15625
0 -0.0625 -0.1875 0 -0.0625 -0.21875 0 -0.0625
-0.25 0 -0.0625 -0.28125 0 -0.0625 -0.3125 0
-0.0625 -0.34375 0 -0.0625 -0.375 0 -0.0625 -0.40625
0 -0.0625 -0.4375 0 -0.0625 -0.46875 0 -0.0625
-0.5 0 -0.0625 0.5 0 -0.0546875 0.46875 0.00141907
-0.0546875 0.4375 0.00274658 -0.0546875 0.40625 0.00398254 -0.0546875 0.375
0.00512695 -0.0546875 0.34375 0.00617981 -0.0546875 0.3125 0.00714111 -0.0546875
0.28125 0.00801086 -0.0546875 0.25 0.00878906 -0.0546875 0.21875 0.00947571
-0.0546875 0.1875 0.0100708 -0.0546875 0.15625 0.0105743 -0.0546875 0.125
0.0109863 -0.0546875 0.09375 0.0113068 -0.0546875 0.0625 0.0115356 -0.0546875
0.03125 0.011673 -0.0546875 0 0.0117188 -0.0546875 -0.03125 0.011673
-0.0546875 -0.0625 0.0115356 -0.0546875 -0.09375 0.0113068 -0.0546875 -0.125
0.0109863 -0.0546875 -0.15625 0.0105743 -0.0546875 -0.1875 0.0100708 -0.0546875
-0.21875 0.00947571 -0.0546875 -0.25 0.00878906 -0.0546875 -0.28125 0.00801086
-0.0546875 -0.3125 0.00714111 -0.0546875 -0.34375 0.00617981 -0.0546875 -0.375
0.00512695 -0.0546875 -0.40625 0.00398254 -0.0546875 -0.4375 0.00274658 -0.0546875
-0.46875 0.00141907 -0.0546875 -0.5 0 -0.0546875 0.5 0
-0.046875 0.46875 0.00264893 -0.046875 0.4375 0.00512695 -0.046875 0.40625
0.00743408 -0.046875 0.375 0.00957031 -0.046875 0.34375 0.0115356 -0.046875
0.3125 0.0133301 -0.046875 0.28125 0.0149536 -0.046875 0.25 0.0164063
-0.046875 0.21875 0.017688 -0.046875 0.1875 0.0187988 -0.046875 0.15625
0.0197388 -0.046875 0.125 0.0205078 -0.046875 0.09375 0.021106 -0.046875
0.0625 0.0215332 -0.046875 0.03125 0.0217896 -0.046875 0 0.021875
-0.046875 -0.03125 0.0217896 -0.046875 -0.0625 0.0215332 -0.046875 -0.09375
0.021106 -0.046875 -0.125 0.0205078 -0.046875 -0.15625 0.0197388 -0.046875
-0.1875 0.0187988 -0.046875 -0.21875 0.017688 -0.046875 -0.25 0.0164063
-0.046875 -0.28125 0.0149536 -0.046875 -0.3125 0.0133301 -0.046875 -0.34375
0.0115356 -0.046875 -0.375 0.00957031 -0.046875 -0.40625 0.00743408 -0.046875
-0.4375 0.00512695 -0.046875 -0.46875 0.00264893 -0.046875 -0.5 0
-0.046875 0.5 0 -0.0390625 0.46875 0.00368958 -0.0390625 0.4375
0.00714111 -0.0390625 0.40625 0.0103546 -0.0390625 0.375 0.0133301 -0.0390625
0.34375 0.0160675 -0.0390625 0.3125 0.0185669 -0.0390625 0.28125 0.0208282
-0.0390625 0.25 0.0228516 -0.0390625 0.21875 0.0246368 -0.0390625 0.1875
0.0261841 -0.0390625 0.15625 0.0274933 -0.0390625 0.125 0.0285645 -0.0390625
0.09375 0.0293976 -0.0390625 0.0625 0.0299927 -0.0390625 0.03125 0.0303497
-0.0390625 0 0.0304688 -0.0390625 -0.03125 0.0303497 -0.0390625 -0.0625
0.0299927 -0.0390625 -0.09375 0.0293976 -0.0390625 -0.125 0.0285645 -0.0390625
-0.15625 0.0274933 -0.0390625 -0.1875 0.0261841 -0.0390625 -0.21875 0.0246368
-0.0390625 -0.25 0.0228516 -0.0390625 -0.28125 0.0208282 -0.0390625 -0.3125
0.0185669 -0.0390625 -0.34375 0.0160675 -0.0390625 -0.375 0.0133301 -0.0390625
-0.40625 0.0103546 -0.0390625 -0.4375 0.00714111 -0.0390625 -0.46875 0.00368958
-0.0390625 -0.5 0 -0.0390625 0.5 0 -0.03125 0.46875
0.00454102 -0.03125 0.4375 0.00878906 -0.03125 0.40625 0.0127441 -0.03125
0.375 0.0164063 -0.03125 0.34375 0.0197754 -0.03125 0.3125 0.0228516
-0.03125 0.28125 0.0256348 -0.03125 0.25 0.028125 -0.03125 0.21875
0.0303223 -0.03125 0.1875 0.0322266 -0.03125 0.15625 0.0338379 -0.03125
0.125 0.0351563 -0.03125 0.09375 0.0361816 -0.03125 0.0625 0.0369141
-0.03125 0.03125 0.0373535 -0.03125 0 0.0375 -0.03125 -0.03125
0.0373535 -0.03125 -0.0625 0.0369141 -0.03125 -0.09375 0.0361816 -0.03125
-0.125 0.0351563 -0.03125 -0.15625 0.0338379 -0.03125 -0.1875 0.0322266
-0.03125 -0.21875 0.0303223 -0.03125 -0.25 0.028125 -0.03125 -0.28125
0.0256348 -0.03125 -0.3125 0.0228516 -0.03125 -0.34375 0.0197754 -0.03125
-0.375 0.0164063 -0.03125 -0.40625 0.0127441 -0.03125 -0.4375 0.00878906
-0.03125 -0.46875 0.00454102 -0.03125 -0.5 0 -0.03125 0.5
0 -0.0234375 0.46875 0.00520325 -0.0234375 0.4375 0.0100708 -0.0234375
0.40625 0.0146027 -0.0234375 0.375 0.0187988 -0.0234375 0.34375 0.0226593
-0.0234375 0.3125 0.0261841 -0.0234375 0.28125 0.0293732 -0.0234375 0.25
0.0322266 -0.0234375 0.21875 0.0347443 -0.0234375 0.1875 0.0369263 -0.0234375
0.15625 0.0387726 -0.0234375 0.125 0.0402832 -0.0234375 0.09375 0.0414581
-0.0234375 0.0625 0.0422974 -0.0234375 0.03125 0.0428009 -0.0234375 0
0.0429688 -0.0234375 -0.03125 0.0428009 -0.0234375 -0.0625 0.0422974 -0.0234375
-0.09375 0.0414581 -0.0234375 -0.125 0.0402832 -0.0234375 -0.15625 0.0387726
-0.0234375 -0.1875 0.0369263 -0.0234375 -0.21875 0.0347443 -0.0234375 -0.25
0.0322266 -0.0234375 -0.28125 0.0293732 -0.0234375 -0.3125 0.0261841 -0.0234375
-0.34375 0.0226593 -0.0234375 -0.375 0.0187988 -0.0234375 -0.40625 0.0146027
-0.0234375 -0.4375 0.0100708 -0.0234375 -0.46875 0.00520325 -0.0234375 -0.5
0 -0.0234375 0.5 0 -0.015625 0.46875 0.00567627 -0.015625
0.4375 0.0109863 -0.015625 0.40625 0.0159302 -0.015625 0.375 0.0205078
-0.015625 0.34375 0.0247192 -0.015625 0.3125 0.0285645 -0.015625 0.28125
0.0320435 -0.015625 0.25 0.0351563 -0.015625 0.21875 0.0379028 -0.015625
0.1875 0.0402832 -0.015625 0.15625 0.0422974 -0.015625 0.125 0.0439453
-0.015625 0.09375 0.0452271 -0.015625 0.0625 0.0461426 -0.015625 0.03125
0.0466919 -0.015625 0 0.046875 -0.015625 -0.03125 0.0466919 -0.015625
-0.0625 0.0461426 -0.015625 -0.09375 0.0452271 -0.015625 -0.125 0.0439453
-0.015625 -0.15625 0.0422974 -0.015625 -0.1875 0.0402832 -0.015625 -0.21875
0.0379028 -0.015625 -0.25 0.0351563 -0.015625 -0.28125 0.0320435 -0.015625
-0.3125 0.0285645 -0.015625 -0.34375 0.0247192 -0.015625 -0.375 0.0205078
-0.015625 -0.40625 0.0159302 -0.015625 -0.4375 0.0109863 -0.015625 -0.46875
0.00567627 -0.015625 -0.5 0 -0.015625 0.5 0 -0.0078125
0.46875 0.00596008 -0.0078125 0.4375 0.0115356 -0.0078125 0.40625 0.0167267
-0.0078125 0.375 0.0215332 -0.0078125 0.34375 0.0259552 -0.0078125 0.3125
0.0299927 -0.0078125 0.28125 0.0336456 -0.0078125 0.25 0.0369141 -0.0078125
0.21875 0.039798 -0.0078125 0.1875 0.0422974 -0.0078125 0.15625 0.0444122
-0.0078125 0.125 0.0461426 -0.0078125 0.09375 0.0474884 -0.0078125 0.0625
0.0484497 -0.0078125 0.03125 0.0490265 -0.0078125 0 0.0492188 -0.0078125
-0.03125 0.0490265 -0.0078125 -0.0625 0.0484497 -0.0078125 -0.09375 0.0474884
-0.0078125 -0.125 0.0461426 -0.0078125 -0.15625 0.0444122 -0.0078125 -0.1875
0.0422974 -0.0078125 -0.21875 0.039798 -0.0078125 -0.25 0.0369141 -0.0078125
-0.28125 0.0336456 -0.0078125 -0.3125 0.0299927 -0.0078125 -0.34375 0.0259552
-0.0078125 -0.375 0.0215332 -0.0078125 -0.40625 0.0167267 -0.0078125 -0.4375
0.0115356 -0.0078125 -0.46875 0.00596008 -0.0078125 -0.5 0 -0.0078125
0.5 0 0 0.46875 0.00605469 0 0.4375 0.0117188
0 0.40625 0.0169922 0 0.375 0.021875 0 0.34375
0.0263672 0 0.3125 0.0304688 0 0.28125 0.0341797 0
0.25 0.0375 0 0.21875 0.0404297 0 0.1875 0.0429688
0 0.15625 0.0451172 0 0.125 0.046875 0 0.09375
0.0482422 0 0.0625 0.0492188 0 0.03125 0.0498047 0
0 0.05 0 -0.03125 0.0498047 0 -0.0625 0.0492188
0 -0.09375 0.0482422 0 -0.125 0.046875 0 -0.15625
0.0451172 0 -0.1875 0.0429688 0 -0.21875 0.0404297 0
-0.25 0.0375 0 -0.28125 0.0341797 0 -0.3125 0.0304688
0 -0.34375 0.0263672 0 -0.375 0.021875 0 -0.40625
0.0169922 0 -0.4375 0.0117188 0 -0.46875 0.00605469 0
-0.5 0 0 0.5 0 0.0203125 0.46875 0.00605469
0.0203125 0.4375 0.0117188 0.0203125 0.40625 0.0169922 0.0203125 0.375
0.021875 0.0203125 0.34375 0.0263672 0.0203125 0.3125 0.0304688 0.0203125
0.28125 0.0341797 0.0203125 0.25 0.0375 0.0203125 0.21875 0.0404297
0.0203125 0.1875 0.0429688 0.0203125 0.15625 0.0451172 0.0203125 0.125
0.046875 0.0203125 0.09375 0.0482422 0.0203125 0.0625 0.0492188 0.0203125
0.03125 0.0498047 0.0203125 0 0.05 0.0203125 -0.03125 0.0498047
0.0203125 -0.0625 0.0492188 0.0203125 -0.09375 0.0482422 0.0203125 -0.125
0.046875 0.0203125 -0.15625 0.0451172 0.0203125 -0.1875 0.0429688 0.0203125
-0.21875 0.0404297 0.0203125 -0.25 0.0375 0.0203125 -0.28125 0.0341797
0.0203125 -0.3125 0.0304688 0.0203125 -0.34375 0.0263672 0.0203125 -0.375
0.021875 0.0203125 -0.40625 0.0169922 0.0203125 -0.4375 0.0117188 0.0203125
-0.46875 0.00605469 0.0203125 -0.5 0 0.0203125 1 0
0.0203125 0.96875 0 0.0203125 0.9375 0 0.0203125 0.90625
0 0.0203125 0.875 0 0.0203125 0.84375 0 0.0203125
0.8125 0 0.0203125 0.78125 0 0.0203125 0.75 0
0.0203125 0.71875 0 0.0203125 0.6875 0 0.0203125 0.65625
0 0.0203125 0.625 0 0.0203125 0.59375 0 0.0203125
0.5625 0 0.0203125 0.53125 0 0.0203125 0.5 0
0.0203125 0.46875 0.00605469 0.0203125 0.4375 0.0117188 0.0203125 0.40625
0.0169922 0.0203125 0.375 0.021875 0.0203125 0.34375 0.0263672 0.0203125
0.3125 0.0304688 0.0203125 0.28125 0.0341797 0.0203125 0.25 0.0375
0.0203125 0.21875 0.0404297 0.0203125 0.1875 0.0429688 0.0203125 0.15625
0.0451172 0.0203125 0.125 0.046875 0.0203125 0.09375 0.0482422 0.0203125
0.0625 0.0492188 0.0203125 0.03125 0.0498047 0.0203125 0 0.05
0.0203125 -0.03125 0.0498047 0.0203125 -0.0625 0.0492188 0.0203125 -0.09375
0.0482422 0.0203125 -0.125 0.046875 0.0203125 -0.15625 0.0451172 0.0203125
-0.1875 0.0429688 0.0203125 -0.21875 0.0404297 0.0203125 -0.25 0.0375
0.0203125 -0.28125 0.0341797 0.0203125 -0.3125 0.0304688 0.0203125 -0.34375
0.0263672 0.0203125 -0.375 0.021875 0.0203125 -0.40625 0.0169922 0.0203125
-0.4375 0.0117188 0.0203125 -0.46875 0.00605469 0.0203125 -0.5 0
0.0203125 -0.53125 0 0.0203125 -0.5625 0 0.0203125 -0.59375
0 0.0203125 -0.625 0 0.0203125 -0.65625 0 0.0203125
-0.6875 0 0.0203125 -0.71875 0 0.0203125 -0.75 0
[...]
<CellData>
<DataArray type="Float32" Name="vn" format="ascii">
6.245e-17 -6.93889e-17 6.93889e-17 -8.32667e-17 2.08167e-17 7.28584e-17 -6.59195e-17 -6.59195e-17
-3.1225e-17 3.46945e-18 -2.77556e-17 -2.60209e-17 -3.81639e-17 -6.07153e-18 -4.98733e-18 -3.25261e-19
3.03577e-18 -1.99493e-17 8.67362e-18 2.51535e-17 1.21431e-17 -3.1225e-17 -3.29597e-17 2.60209e-17
-3.81639e-17 -7.28584e-17 -4.85723e-17 -1.73472e-17 1.45717e-16 6.245e-17 -7.28584e-17 1.14492e-16
1.92554e-16 -1.45717e-16 1.11022e-16 3.46945e-16 2.08167e-17 -1.73472e-16 2.22045e-16 -1.31839e-16
-2.08167e-17 -3.46945e-18 -1.04083e-17 -5.89806e-17 4.68375e-17 -4.51028e-17 -1.0842e-17 -1.05168e-17
-3.29597e-17 4.33681e-17 2.42861e-17 1.73472e-18 -6.93889e-17 2.42861e-17 -1.38778e-17 6.59195e-17
-2.77556e-17 1.94289e-16 2.01228e-16 -2.98372e-16 6.93889e-18 -6.245e-17 8.67362e-17 -7.11237e-17
1.39645e-16 -2.65413e-16 -3.1225e-16 5.55112e-17 -2.08167e-16 -3.46945e-16 -4.16334e-17 -2.42861e-16
-2.77556e-17 0 1.38778e-17 -1.49186e-16 1.73472e-17 -2.42861e-17 2.60209e-18 4.55365e-18
1.38778e-17 -5.20417e-18 1.21431e-17 3.81639e-17 -3.1225e-17 1.38778e-17 -3.81639e-17 -1.45717e-16
-1.38778e-17 2.42861e-16 -1.17961e-16 -1.11022e-16 7.63278e-17 1.52656e-16 -6.62664e-16 2.91434e-16
6.09322e-16 9.36751e-17 4.09395e-16 4.85723e-17 3.26128e-16 -8.32667e-17 4.85723e-17 -3.1225e-16
2.08167e-16 1.38778e-16 1.8735e-16 3.1225e-17 -1.04083e-17 4.16334e-17 2.1684e-17 -1.21431e-17
2.42861e-17 3.29597e-17 2.42861e-17 -9.36751e-17 7.28584e-17 -4.85723e-17 4.16334e-17 -1.94289e-16
2.70617e-16 2.84495e-16 -6.93889e-18 4.16334e-17 -6.73073e-16 1.31145e-15 4.71845e-16 -3.54751e-16
-6.09322e-16 -9.52797e-16 1.21431e-17 7.18176e-16 -2.28983e-16 -4.78784e-16 -2.15106e-16 3.26128e-16
-4.85723e-17 4.71845e-16 5.68989e-16 -1.17961e-16 -1.14492e-16 -2.44596e-16 -1.01264e-16 1.24466e-16
9.88792e-17 -6.93889e-18 2.32453e-16 -2.498e-16 1.11022e-16 1.07553e-16 2.08167e-16 -2.77556e-17
-4.82253e-16 -1.16573e-15 3.08781e-16 2.43208e-15 -3.40006e-16 4.51028e-17 -2.95944e-15 -1.59161e-15
9.3545e-16 5.97721e-16 2.13024e-15 2.06432e-16 -1.49186e-16 -1.52656e-15 -7.91034e-16 8.60423e-16
4.57967e-16 1.04083e-16 -2.08167e-16 -3.88578e-16 -1.07553e-16 3.77302e-16 7.78457e-17 -1.48319e-16
-3.03577e-17 -2.5327e-16 -1.92554e-16 -1.45717e-16 -6.48787e-16 2.60209e-17 -1.2889e-15 -7.59809e-16
-3.1225e-16 9.81853e-16 -1.19696e-15 -1.39125e-15 1.69136e-15 -1.12063e-15 7.31186e-16 -1.47885e-15
1.16964e-15 -1.3765e-15 -2.97071e-16 7.28584e-16 -5.20417e-18 6.8695e-16 3.05311e-16 -4.47559e-16
-7.25114e-16 -4.78784e-16 -1.40513e-16 4.68375e-16 -3.17454e-16 -2.81025e-16 -2.73869e-16 -2.34188e-17
-6.59195e-17 2.87097e-16 7.63278e-17 8.65627e-16 -2.07299e-16 4.56232e-16 6.20164e-16 3.89445e-16
-6.98226e-16 6.67869e-17 -2.06259e-15 -8.96852e-16 -3.59955e-16 -2.84495e-16 -1.18655e-15 8.02093e-16
-1.23867e-14 1.10792e-14 -5.0938e-15 1.40896e-14 -2.02741e-14 9.52623e-15 1.96544e-15 1.08507e-15
1.90646e-15 -3.27603e-15 2.13718e-15 -5.05238e-17 2.5945e-16 1.63685e-15 -7.90167e-16 2.36226e-15
-1.40556e-15 -1.84965e-16 8.5652e-17 -2.65239e-15 2.90864e-15 -7.35848e-16 1.05153e-15 3.92983e-15
-5.20647e-16 2.20547e-15 4.17472e-16 4.59387e-15 8.66006e-16 1.0764e-15 1.94766e-15 2.64768e-15
9.79772e-15 -4.38538e-15 4.69069e-15 -8.52096e-15 1.36696e-14 -6.99441e-15 -1.4988e-15 2.78944e-15
-1.38778e-17 2.7478e-15 -5.41234e-16 1.51268e-15 -8.74301e-16 8.22259e-16 -2.64025e-15 -1.31492e-15
4.75314e-16 1.14492e-16 3.29597e-16 1.6237e-15 -1.63064e-15 3.9968e-15 3.84415e-15 -4.57967e-16
3.02536e-15 2.15106e-15 5.02376e-15 -3.27516e-15 1.13798e-15 1.05471e-15 0 2.77556e-16
6.62061e-05 0.000120337 0.000196609 0.000290082 0.000396618 0.0005134 0.000640199 0.000781008
0.00094634 0.00115677 0.00145046 0.00189559 0.00264419 0.00396773 0.00710449 0.0141757
0.0601477 0.141063 0.103616 0.0390861 -0.0192283 -0.0598414 -0.0799742 -0.0815409
-0.0694615 -0.0502118 -0.030025 -0.0132701 -0.00169901 0.00514519 0.00876585 0.010516
0.0109955 0.0101675 0.00787861 0.00428326 -7.93625e-05 -0.00451275 -0.00842812 -0.0114715
-0.0134852 -0.0144253 -0.0142823 -0.01304 -0.0105549 -0.00639748 0.00139773 0.0154726
0.0793582 0.227697 0.183556 0.0726909 -0.0344772 -0.101389 -0.121569 -0.108413
-0.0807948 -0.0527951 -0.0304485 -0.0137034 -0.000155027 0.0120692 0.0232172 0.0322542
0.0377926 0.0389003 0.0354699 0.0281742 0.0181968 0.00692883 -0.00426214 -0.0141729
-0.0218442 -0.0266126 -0.0281485 -0.0264754 -0.0219586 -0.0152557 -0.00723279 0.00114229
0.00891393 0.0152454 0.0195052 0.0213261 0.0206313 0.017628 0.0127709 0.00670033
0.000162267 -0.00607953 -0.0113302 -0.0150389 -0.0168553 -0.0166597 -0.0145669 -0.0109026
-0.00615686 -0.00092125 0.00418311 0.00857753 0.0117898 0.0135035 0.013587 0.012101
0.00928326 0.00551399 0.00126642 -0.00295115 -0.00665498 -0.00944026 -0.0110243 -0.0112738
-0.0102145 -0.00802156 -0.00499359 -0.00151348 0.00199894 0.00513663 0.00755155 0.0089923
0.00932915 0.00856388 0.0068243 0.0043418 0.00142584 -0.00161972 -0.00438124 -0.00735489
6.58975e-05 0.000119766 0.000195647 0.000288597 0.000394456 0.000510363 0.000635986 0.000775122
0.000937884 0.00114406 0.00142996 0.00186003 0.00257073 0.00381293 0.00648562 0.0122111
0.0247043 0.027907 0.0320434 0.0340553 0.0231375 -0.00254067 -0.0346514 -0.0611317
-0.0726871 -0.0664032 -0.0460125 -0.0195105 0.00454178 0.0203657 0.0265445 0.0253585
0.0206068 0.0153723 0.0109473 0.00717256 0.00349571 -0.000200723 -0.00347764 -0.00572977
-0.00659269 -0.00605669 -0.00432904 -0.00165274 0.00181858 0.00608735 0.0119301 0.0212309
0.0402112 0.0670984 0.0920133 0.0896361 0.0493345 -0.015795 -0.0775998 -0.112228
-0.112342 -0.0864966 -0.0502611 -0.0169401 0.0070348 0.0215623 0.0296366 0.0342105
0.0366548 0.0368384 0.0340417 0.0278715 0.018715 0.00769172 -0.00369494 -0.013957
-0.0219109 -0.0268096 -0.0283524 -0.0266337 -0.0220745 -0.0153525 -0.00732558 0.00105507
0.00884516 0.0152086 0.0195067 0.0213631 0.0206938 0.0177038 0.0128487 0.00677152
0.000221265 -0.0060362 -0.0113045 -0.0150319 -0.0168662 -0.0166865 -0.014606 -0.010949
-0.006205 -0.000965615 0.00414728 0.00855367 0.0117797 0.0135071 0.0136028 0.0121263
0.00931448 0.00554722 0.00129782 -0.00292494 -0.00663648 -0.00943092 -0.0110244 -0.0112827
-0.0102306 -0.00804262 -0.00501696 -0.00153642 0.00197898 0.0051217 0.00754298 0.00899058
0.00933396 0.00857416 0.00683848 0.00435798 0.00144201 -0.00160557 -0.00437081 -0.00735043
6.52e-05 0.000118476 0.000193475 0.000285244 0.000389584 0.00050353 0.000626533 0.000761958
0.000919073 0.00111599 0.00138525 0.00178352 0.00242012 0.00349772 0.00550513 0.0094701
0.015659 0.0222936 0.0232931 0.0186665 0.0108902 0.0010555 -0.0116211 -0.0273634
-0.0434633 -0.0544027 -0.0545752 -0.0417594 -0.0190138 0.00632973 0.0260886 0.0350752
0.0331228 0.0242527 0.0138011 0.00552378 0.000408873 -0.00252836 -0.00458197 -0.00622631
-0.00710407 -0.00669134 -0.00484873 -0.00186547 0.00184591 0.00605099 0.0109535 0.0176861
0.0267814 0.0382816 0.0495898 0.060521 0.0594293 0.0347034 -0.0124157 -0.0657021
-0.103429 -0.111203 -0.0889604 -0.0487734 -0.00673959 0.0250394 0.042161 0.0467991
0.044014 0.0382785 0.0318325 0.0249056 0.0168943 0.00748561 -0.0028264 -0.012858
-0.021197 -0.0266795 -0.0286773 -0.0271583 -0.0225833 -0.0157396 -0.00758051 0.000898884
0.00875465 0.0151697 0.0195206 0.0214331 0.0208158 0.0178632 0.013024 0.00694011
0.000364292 -0.00593141 -0.0112443 -0.015017 -0.0168936 -0.0167497 -0.014696 -0.0110548
-0.00631437 -0.00106641 0.00406561 0.00849888 0.0117559 0.0135146 0.0136385 0.0121839
0.00938585 0.00562329 0.00136972 -0.00286486 -0.00659393 -0.00940924 -0.0110244 -0.0113029
-0.0102674 -0.00809083 -0.00507045 -0.00158886 0.00193339 0.00508756 0.00752325 0.00898641
0.00934467 0.00859749 0.00687089 0.00439509 0.00147909 -0.0015732 -0.004347 -0.00734026
6.40185e-05 0.000116293 0.000189801 0.000279582 0.000381374 0.000492049 0.000610721 0.000740082
0.000888102 0.00107038 0.00131414 0.00166501 0.00220179 0.00306059 0.00447703 0.00679373
0.00961743 0.0114001 0.0127355 0.0130201 0.0106713 0.00464451 -0.00462256 -0.0156256
-0.0266419 -0.0359652 -0.0415278 -0.040817 -0.0318418 -0.0148508 0.00651296 0.025934
0.0371185 0.0369905 0.0272712 0.0132982 0.00087588 -0.00666955 -0.00937176 -0.00928821
-0.00839351 -0.0073654 -0.00580532 -0.0031788 0.000553057 0.00502107 0.0099474 0.0156154
0.0226049 0.0297117 0.0362975 0.0404717 0.0408301 0.0337335 0.0145222 -0.0176842
-0.0560597 -0.0873527 -0.0983834 -0.0834214 -0.0474372 -0.00334041 0.0346134 0.057057
0.0621791 0.0543011 0.0401654 0.0254159 0.0128853 0.00285355 -0.00560177 -0.0132568
-0.0200718 -0.0252772 -0.02789 -0.0272523 -0.0233297 -0.0167139 -0.00842279 0.000364031
0.00853131 0.0151712 0.0196502 0.0216269 0.0210463 0.0181213 0.0132999 0.00721448
0.000610229 -0.00574073 -0.0111282 -0.0149836 -0.0169393 -0.0168618 -0.0148557 -0.0112405
-0.00650424 -0.00124022 0.00392492 0.0084039 0.0117138 0.0135263 0.0136988 0.0122825
0.00950879 0.00575485 0.0014946 -0.00275995 -0.00651909 -0.00937058 -0.0110237 -0.0113376
-0.010331 -0.00817425 -0.00516296 -0.00167955 0.00185437 0.00502806 0.00748847 0.00897851
0.0093627 0.00863763 0.00692697 0.0044594 0.00154334 -0.0015171 -0.0043057 -0.00732242
6.22545e-05 0.000113035 0.000184329 0.000271169 0.000369213 0.000475127 0.000587572 0.000708364
0.000843814 0.00100641 0.00121726 0.00150975 0.00193547 0.00257164 0.00352313 0.00490031
0.00645815 0.00769496 0.00818521 0.00760402 0.00593411 0.00307674 -0.00132288 -0.00753058
-0.0151841 -0.0230797 -0.0294411 -0.0324003 -0.0303989 -0.0225377 -0.00909308 0.00785637
0.0242671 0.0351205 0.0365691 0.0281385 0.0133862 -0.00176663 -0.0121356 -0.0157431
-0.0140511 -0.010099 -0.00621454 -0.00297194 0.000261024 0.00415688 0.00879062 0.0138629
0.0188169 0.0232806 0.0270748 0.0297118 0.0298479 0.0258787 0.0162237 -0.000316452
-0.023386 -0.0494519 -0.0713613 -0.0804373 -0.0706038 -0.0421605 -0.00264309 0.0360532
0.0627568 0.0714993 0.0631495 0.0437924 0.021222 0.001608 -0.0121743 -0.0202729
-0.0243958 -0.0262491 -0.0266533 -0.0255158 -0.0223547 -0.0169058 -0.00947569 -0.000941083
0.00750478 0.0146817 0.0196848 0.0220153 0.0215904 0.0186765 0.0137958 0.00763243
0.000950226 -0.00548243 -0.0109641 -0.0149275 -0.0169965 -0.0170228 -0.0150969 -0.0115285
-0.00680244 -0.0015141 0.00370378 0.00825533 0.0116478 0.0135433 0.0137901 0.0124325
0.00969681 0.0059576 0.00168866 -0.00259567 -0.006401 -0.00930873 -0.0110209 -0.0113897
-0.0104282 -0.00830232 -0.00530561 -0.00182011 0.00173122 0.00493478 0.00743344 0.00896528
0.00938981 0.00869907 0.00701314 0.00455842 0.00164253 -0.00143018 -0.0042413 -0.00729398
5.98166e-05 0.000108539 0.000176791 0.000259615 0.000352591 0.000452147 0.000556426 0.000666238
0.000786052 0.000925045 0.00109829 0.00132808 0.00164517 0.00208843 0.00269802 0.00349598
0.00428927 0.00481636 0.0050707 0.00485736 0.00390089 0.00197577 -0.000971491 -0.00483574
-0.00942321 -0.0144191 -0.0192321 -0.022882 -0.024107 -0.021711 -0.0150158 -0.0042746
0.00902657 0.0221043 0.031312 0.0332952 0.0266335 0.013076 -0.00270128 -0.0151142
-0.0204319 -0.0184763 -0.0121015 -0.00495738 0.000714868 0.00476641 0.00823788 0.0120235
0.0160388 0.019508 0.0220221 0.0231262 0.0224532 0.0194405 0.013346 0.00355218
-0.0100276 -0.0264938 -0.0434862 -0.0570014 -0.0620516 -0.0544244 -0.032994 -0.0012988
0.0328332 0.0598491 0.072149 0.0670577 0.0476172 0.0209173 -0.00503063 -0.0242696
-0.0344302 -0.0364639 -0.0331449 -0.0273427 -0.0209019 -0.0144315 -0.00778327 -0.000738752
0.00651369 0.0132907 0.0186452 0.021719 0.0220278 0.0195803 0.0148335 0.00854831
0.00161774 -0.0050804 -0.010787 -0.0149244 -0.0171295 -0.0172683 -0.0154336 -0.0119274
-0.00722324 -0.00191032 0.00337603 0.00802938 0.011542 0.01356 0.0139179 0.0126484
0.00997016 0.00625363 0.00197256 -0.00235469 -0.00622651 -0.00921501 -0.0110123 -0.0114611
-0.0105661 -0.00848699 -0.00551334 -0.00202606 0.00155008 0.00479706 0.00735142 0.00894401
0.00942714 0.00878645 0.00713696 0.00470169 0.00178684 -0.001303 -0.00414637 -0.0072508
5.66334e-05 0.000102677 0.000166989 0.000244654 0.000331193 0.00042281 0.000517125 0.00061393
0.000715886 0.000829074 0.00096337 0.00113248 0.00135323 0.00164332 0.00201566 0.00246905
0.0028806 0.00311281 0.00313639 0.00284896 0.00216162 0.000982027 -0.000786288 -0.00319498
-0.006178 -0.00951128 -0.0128231 -0.0156188 -0.0172887 -0.0171331 -0.014476 -0.0089046
-0.000578977 0.00950667 0.0194446 0.0266465 0.0285046 0.0234508 0.0120518 -0.00256293
-0.0155722 -0.0225359 -0.0215867 -0.0142847 -0.00446744 0.00411966 0.00972739 0.0128425
0.014999 0.0168092 0.0180891 0.0184978 0.0175839 0.0149673 0.0103917 0.00371498
-0.00503373 -0.0154887 -0.0267337 -0.0371363 -0.0443487 -0.0456243 -0.0385734 -0.022282
0.00161898 0.0285835 0.0519974 0.065206 0.0639868 0.0483344 0.0226445 -0.0058669
-0.0298013 -0.0440781 -0.0472488 -0.0412365 -0.0298796 -0.0171294 -0.00572796 0.00321205
0.00981957 0.0147016 0.0182807 0.0205168 0.0210251 0.0194063 0.0155637 0.00984974
0.00301545 -0.00397589 -0.0101701 -0.0148004 -0.0173864 -0.0177589 -0.0160316 -0.0125472
-0.00781357 -0.00243702 0.00294353 0.00772184 0.0113852 0.0135665 0.0140804 0.0129399
0.010348 0.00666786 0.00237342 -0.00201086 -0.00597336 -0.00907396 -0.0109913 -0.0115542
-0.010755 -0.00874358 -0.00580386 -0.00231546 0.00129396 0.00460018 0.00723138 0.00890874
0.00947459 0.00890525 0.00730816 0.00490131 0.00198903 -0.0011236 -0.00401079 -0.00718626
5.26703e-05 9.53916e-05 0.000154847 0.000226212 0.000305007 0.000387267 0.00047016 0.000552578
0.000635604 0.000722762 0.000819966 0.000935033 0.00107654 0.00125168 0.00146258 0.00170173
0.00188865 0.00194905 0.00188072 0.00162301 0.00110971 0.000282681 -0.000893914 -0.00242674
-0.00428731 -0.00639389 -0.00858234 -0.0105852 -0.0120386 -0.0125187 -0.0115985 -0.00892598
-0.00433801 0.00198507 0.00936158 0.0165285 0.0217403 0.0231302 0.0193529 0.0103713
-0.00197614 -0.0141278 -0.0219607 -0.0226286 -0.0160762 -0.00515901 0.00589025 0.0137143
0.0174328 0.018403 0.0176759 0.0160336 0.0138607 0.0111169 0.00751771 0.00278361
-0.00317085 -0.0101451 -0.0176242 -0.0247731 -0.0304501 -0.0332764 -0.0318192 -0.0249347
-0.0122651 0.00522808 0.0249379 0.0427922 0.0541185 0.0550712 0.0441424 0.0230875
-0.00326503 -0.028395 -0.0461817 -0.0528659 -0.0480873 -0.034628 -0.0170796 -8.98482e-05
0.0130606 0.0210644 0.024326 0.0241621 0.0219453 0.0185669 0.0143524 0.00931432
0.00350633 -0.00273533 -0.00876351 -0.0137746 -0.0170397 -0.018102 -0.016873 -0.0136202
-0.00887972 -0.00333771 0.00228382 0.00731867 0.0112227 0.0136175 0.0143151 0.0133245
0.0108409 0.00721692 0.00291842 -0.00153081 -0.00561044 -0.00886336 -0.0109468 -0.0116685
-0.0110028 -0.00908719 -0.00619812 -0.00271313 0.000937436 0.00432208 0.00705765 0.00885142
0.00953123 0.00906045 0.00753657 0.00517125 0.00226608 -0.00087412 -0.00381894 -0.00709073
4.79473e-05 8.67259e-05 0.000140458 0.000204486 0.000274411 0.000346207 0.000416733 0.000484197
0.000548478 0.000611216 0.000675613 0.000745858 0.000826102 0.00091891 0.00102305 0.0011312
0.00119243 0.00116498 0.00104983 0.000814663 0.000426237 -0.000146664 -0.000928234 -0.0019268
-0.0031243 -0.00446789 -0.00586488 -0.00717817 -0.00822209 -0.00876447 -0.00854475 -0.00731355
-0.00489177 -0.0012444 0.00343733 0.00865896 0.0135824 0.0170733 0.0178898 0.0150445
0.00829753 -0.00137721 -0.0116462 -0.0192941 -0.021386 -0.016694 -0.00656607 0.00547283
0.0149741 0.0202843 0.0216085 0.0195819 0.0154147 0.0103541 0.00526769 0.000494434
-0.00403585 -0.0085342 -0.0130848 -0.0174827 -0.0212082 -0.0235088 -0.0235461 -0.0205721
-0.0141273 -0.00425406 0.00829348 0.0219114 0.0341886 0.0422442 0.0433969 0.0360489
0.020498 -0.000695585 -0.0230708 -0.0413783 -0.0511278 -0.0500156 -0.0386668 -0.0203843
-2.65717e-06 0.0176883 0.0293354 0.0337385 0.0317302 0.0254119 0.0171644 0.00885958
0.00151891 -0.00457788 -0.0095247 -0.0134118 -0.0161227 -0.0173553 -0.016798 -0.0143347
-0.0101693 -0.00482591 0.000959397 0.00639624 0.0107891 0.01364 0.0146943 0.0139413
0.0115839 0.0079928 0.00365183 -0.000900597 -0.00513187 -0.00857206 -0.0108625 -0.0117908
-0.011309 -0.009533 -0.00672368 -0.00325186 0.000448751 0.00393509 0.00680751 0.00875514
0.00958822 0.00925391 0.00783556 0.00553363 0.00264322 -0.000532218 -0.00355493 -0.0069552
4.25523e-05 7.68472e-05 0.000124121 0.000179978 0.000240209 0.000300871 0.000358706 0.000411508
0.000458367 0.0004997 0.000537036 0.000572534 0.000608201 0.000644852 0.000680776 0.000710531
0.000702948 0.000635268 0.000509935 0.000308999 1.3793e-05 -0.000391975 -0.000919082 -0.00156955
-0.00233278 -0.0031807 -0.0040625 -0.00490094 -0.00559178 -0.0060069 -0.00600185 -0.00542947
-0.00416287 -0.00212987 0.000643398 0.00398597 0.00754322 0.0107619 0.0129217 0.0132395
0.0110665 0.00617047 -0.000959172 -0.00891973 -0.0155147 -0.018333 -0.0157245 -0.00776452
0.00270446 0.0124166 0.019578 0.0227196 0.0214899 0.0166361 0.00963229 0.00212618
-0.00456681 -0.00974368 -0.0133081 -0.0155417 -0.0167914 -0.0172184 -0.0166966 -0.0148732
-0.0113423 -0.00585754 0.00148429 0.0101268 0.0190253 0.0267176 0.031511 0.0317994
0.0264932 0.0154818 -1.98393e-05 -0.0174261 -0.0331695 -0.0435195 -0.045637 -0.0385215
-0.0234813 -0.00389622 0.0157033 0.0309398 0.0388203 0.0384645 0.0311082 0.0194473
0.00663168 -0.00468883 -0.0129447 -0.0177303 -0.0194846 -0.0189991 -0.0169945 -0.0139191
-0.00998013 -0.00531665 -0.000179299 0.00498539 0.00957815 0.0129825 0.0147227 0.014579
0.0126268 0.00920237 0.00482154 8.32922e-05 -0.00441851 -0.00816457 -0.0107598 -0.0119654
-0.0117138 -0.0101073 -0.00739812 -0.00395291 -0.000205401 0.00339584 0.00643851 0.0085911
0.00963693 0.00949451 0.0082228 0.00600685 0.00313719 -7.9566e-05 -0.00319455 -0.00674973
3.66474e-05 6.60548e-05 0.00010635 0.0001535 0.000203611 0.00025298 0.000298435 0.000337637
0.000369271 0.000393068 0.000409637 0.000420105 0.000425565 0.000426383 0.000421385 0.000407168
0.00036559 0.00028479 0.000167028 2.9288e-06 -0.00021726 -0.000501917 -0.000856204 -0.00127996
-0.0017654 -0.00229494 -0.00283921 -0.00335543 -0.00378648 -0.00406164 -0.00409996 -0.00381709
-0.00313596 -0.00200186 -0.000401841 0.00161232 0.0039006 0.0062167 0.00820443 0.00941992
0.00939181 0.00772888 0.00427334 -0.000722906 -0.00645732 -0.0115681 -0.0143696 -0.013375
-0.00834751 -0.00074315 0.00784879 0.0154511 0.0202431 0.0210627 0.0177321 0.0110848
0.00268469 -0.00565611 -0.0123888 -0.0165917 -0.0180823 -0.0172747 -0.0148768 -0.0115673
-0.00777767 -0.00364405 0.000884055 0.00584788 0.0110885 0.0161363 0.0202179 0.0223787
0.0216924 0.0175147 0.0097375 -0.00101448 -0.0133077 -0.0250137 -0.0336523 -0.0369437
-0.0334565 -0.0231602 -0.00766912 0.00997438 0.0259842 0.036812 0.0401245 0.0354471
0.0242506 0.00945425 -0.00547274 -0.0174885 -0.02471 -0.0266891 -0.0242148 -0.0187924
-0.0120457 -0.00526274 0.000792207 0.00581298 0.00974167 0.0125548 0.0141492 0.0143576
0.0130554 0.0102827 0.00631391 0.00164315 -0.00310436 -0.0072962 -0.0104077 -0.0120985
-0.0122412 -0.0109115 -0.00835398 -0.00493783 -0.00110764 0.00266737 0.00594538 0.00836139
0.0096677 0.00975858 0.00867558 0.0065904 0.00378202 0.000546545 -0.00266827 -0.00642483
3.04615e-05 5.47663e-05 8.78419e-05 0.000126116 0.000166132 0.000204571 0.000238535 0.000265789
0.000284919 0.00029536 0.000297284 0.000291344 0.000278302 0.000258565 0.000231677 0.000195894
0.000141449 6.27637e-05 -3.84818e-05 -0.000166997 -0.000327699 -0.000524583 -0.000759673 -0.00103191
-0.00133596 -0.00166104 -0.00198983 -0.00229774 -0.0025527 -0.00271578 -0.0027427 -0.00258691
-0.00220437 -0.00156062 -0.000639825 0.000544332 0.00193704 0.0034317 0.00486331 0.00601007
0.00660883 0.00638997 0.00513573 0.00276112 -0.000592203 -0.00447278 -0.00808989 -0.0103927
-0.0102938 -0.0076055 -0.00270628 0.00359149 0.0100254 0.0151301 0.0175956 0.016632
0.0122246 0.00518344 -0.0030427 -0.0107407 -0.0163806 -0.0189942 -0.0183683 -0.0150028
-0.0098696 -0.00407418 0.00145551 0.00615078 0.00981471 0.012493 0.014281 0.0151575
0.0149155 0.0132124 0.00971992 0.00431657 -0.00274011 -0.0107203 -0.018445 -0.0244416