<VTKFile type="PolyData">
<PolyData>
<Piece NumberOfPoints="3555" NumberOfVerts="0" NumberOfLines="0" NumberOfStrips="0" NumberOfPolys="3360">
<Points>
<DataArray type="Float32" NumberOfComponents="3" format="ascii">
0.5 0 -0.0625 0.46875 0 -0.0625 0.4375 0
-0.0625 0.40625 0 -0.0625 0.375 0 -0.0625 0.34375
0 -0.0625 0.3125 0 -0.0625 0.28125 0 -0.0625
0.25 0 -0.0625 0.21875 0 -0.0625 0.1875 0
-0.0625 0.15625 0 -0.0625 0.125 0 -0.0625 0.09375
0 -0.0625 0.0625 0 -0.0625 0.03125 0 -0.0625
0 0 -0.0625 -0.03125 0 -0.0625 -0.0625 0
-0.0625 -0.09375 0 -0.0625 -0.125 0 -0.0625 -0.15625
0 -0.0625 -0.1875 0 -0.0625 -0.21875 0 -0.0625
-0.25 0 -0.0625 -0.28125 0 -0.0625 -0.3125 0
-0.0625 -0.34375 0 -0.0625 -0.375 0 -0.0625 -0.40625
0 -0.0625 -0.4375 0 -0.0625 -0.46875 0 -0.0625
-0.5 0 -0.0625 0.5 0 -0.0546875 0.46875 0.000842573
-0.0546875 0.4375 0.00163078 -0.0546875 0.40625 0.00236463 -0.0546875 0.375
0.00304413 -0.0546875 0.34375 0.00366926 -0.0546875 0.3125 0.00424003 -0.0546875
0.28125 0.00475645 -0.0546875 0.25 0.0052185 -0.0546875 0.21875 0.0056262
-0.0546875 0.1875 0.00597954 -0.0546875 0.15625 0.00627849 -0.0546875 0.125
0.00652312 -0.0546875 0.09375 0.00671341 -0.0546875 0.0625 0.00684926 -0.0546875
0.03125 0.00693084 -0.0546875 0 0.00695804 -0.0546875 -0.03125 0.00693084
-0.0546875 -0.0625 0.00684926 -0.0546875 -0.09375 0.00671341 -0.0546875 -0.125
0.00652312 -0.0546875 -0.15625 0.00627849 -0.0546875 -0.1875 0.00597954 -0.0546875
-0.21875 0.0056262 -0.0546875 -0.25 0.0052185 -0.0546875 -0.28125 0.00475645
-0.0546875 -0.3125 0.00424003 -0.0546875 -0.34375 0.00366926 -0.0546875 -0.375
0.00304413 -0.0546875 -0.40625 0.00236463 -0.0546875 -0.4375 0.00163078 -0.0546875
-0.46875 0.000842573 -0.0546875 -0.5 0 -0.0546875 0.5 0
-0.046875 0.46875 0.0015728 -0.046875 0.4375 0.00304413 -0.046875 0.40625
0.00441398 -0.046875 0.375 0.00568237 -0.046875 0.34375 0.00684926 -0.046875
0.3125 0.00791475 -0.046875 0.28125 0.0088787 -0.046875 0.25 0.00974124
-0.046875 0.21875 0.0105022 -0.046875 0.1875 0.0111618 -0.046875 0.15625
0.0117199 -0.046875 0.125 0.0121765 -0.046875 0.09375 0.0125317 -0.046875
0.0625 0.0127853 -0.046875 0.03125 0.0129376 -0.046875 0 0.0129883
-0.046875 -0.03125 0.0129376 -0.046875 -0.0625 0.0127853 -0.046875 -0.09375
0.0125317 -0.046875 -0.125 0.0121765 -0.046875 -0.15625 0.0117199 -0.046875
-0.1875 0.0111618 -0.046875 -0.21875 0.0105022 -0.046875 -0.25 0.00974124
-0.046875 -0.28125 0.0088787 -0.046875 -0.3125 0.00791475 -0.046875 -0.34375
0.00684926 -0.046875 -0.375 0.00568237 -0.046875 -0.40625 0.00441398 -0.046875
-0.4375 0.00304413 -0.046875 -0.46875 0.0015728 -0.046875 -0.5 0
-0.046875 0.5 0 -0.0390625 0.46875 0.00219069 -0.0390625 0.4375
0.00424003 -0.0390625 0.40625 0.00614804 -0.0390625 0.375 0.00791475 -0.0390625
0.34375 0.00954008 -0.0390625 0.3125 0.0110241 -0.0390625 0.28125 0.0123667
-0.0390625 0.25 0.0135681 -0.0390625 0.21875 0.0146281 -0.0390625 0.1875
0.0155468 -0.0390625 0.15625 0.0163241 -0.0390625 0.125 0.0169602 -0.0390625
0.09375 0.0174548 -0.0390625 0.0625 0.0178082 -0.0390625 0.03125 0.0180201
-0.0390625 0 0.0180909 -0.0390625 -0.03125 0.0180201 -0.0390625 -0.0625
0.0178082 -0.0390625 -0.09375 0.0174548 -0.0390625 -0.125 0.0169602 -0.0390625
-0.15625 0.0163241 -0.0390625 -0.1875 0.0155468 -0.0390625 -0.21875 0.0146281
-0.0390625 -0.25 0.0135681 -0.0390625 -0.28125 0.0123667 -0.0390625 -0.3125
0.0110241 -0.0390625 -0.34375 0.00954008 -0.0390625 -0.375 0.00791475 -0.0390625
-0.40625 0.00614804 -0.0390625 -0.4375 0.00424003 -0.0390625 -0.46875 0.00219069
-0.0390625 -0.5 0 -0.0390625 0.5 0 -0.03125 0.46875
0.00269623 -0.03125 0.4375 0.0052185 -0.03125 0.40625 0.00756681 -0.03125
0.375 0.00974124 -0.03125 0.34375 0.0117416 -0.03125 0.3125 0.0135681
-0.03125 0.28125 0.0152207 -0.03125 0.25 0.0166992 -0.03125 0.21875
0.0180039 -0.03125 0.1875 0.0191345 -0.03125 0.15625 0.0200913 -0.03125
0.125 0.0208741 -0.03125 0.09375 0.0214828 -0.03125 0.0625 0.0219177
-0.03125 0.03125 0.0221786 -0.03125 0 0.0222656 -0.03125 -0.03125
0.0221786 -0.03125 -0.0625 0.0219177 -0.03125 -0.09375 0.0214828 -0.03125
-0.125 0.0208741 -0.03125 -0.15625 0.0200913 -0.03125 -0.1875 0.0191345
-0.03125 -0.21875 0.0180039 -0.03125 -0.25 0.0166992 -0.03125 -0.28125
0.0152207 -0.03125 -0.3125 0.0135681 -0.03125 -0.34375 0.0117416 -0.03125
-0.375 0.00974124 -0.03125 -0.40625 0.00756681 -0.03125 -0.4375 0.0052185
-0.03125 -0.46875 0.00269623 -0.03125 -0.5 0 -0.03125 0.5
0 -0.0234375 0.46875 0.00308943 -0.0234375 0.4375 0.00597954 -0.0234375
0.40625 0.00867035 -0.0234375 0.375 0.0111618 -0.0234375 0.34375 0.013454
-0.0234375 0.3125 0.0155468 -0.0234375 0.28125 0.0174403 -0.0234375 0.25
0.0191345 -0.0234375 0.21875 0.0206294 -0.0234375 0.1875 0.021925 -0.0234375
0.15625 0.0230212 -0.0234375 0.125 0.0239181 -0.0234375 0.09375 0.0246157
-0.0234375 0.0625 0.0251141 -0.0234375 0.03125 0.025413 -0.0234375 0
0.0255127 -0.0234375 -0.03125 0.025413 -0.0234375 -0.0625 0.0251141 -0.0234375
-0.09375 0.0246157 -0.0234375 -0.125 0.0239181 -0.0234375 -0.15625 0.0230212
-0.0234375 -0.1875 0.021925 -0.0234375 -0.21875 0.0206294 -0.0234375 -0.25
0.0191345 -0.0234375 -0.28125 0.0174403 -0.0234375 -0.3125 0.0155468 -0.0234375
-0.34375 0.013454 -0.0234375 -0.375 0.0111618 -0.0234375 -0.40625 0.00867035
-0.0234375 -0.4375 0.00597954 -0.0234375 -0.46875 0.00308943 -0.0234375 -0.5
0 -0.0234375 0.5 0 -0.015625 0.46875 0.00337029 -0.015625
0.4375 0.00652312 -0.015625 0.40625 0.00945856 -0.015625 0.375 0.0121765
-0.015625 0.34375 0.014677 -0.015625 0.3125 0.0169602 -0.015625 0.28125
0.0190258 -0.015625 0.25 0.0208741 -0.015625 0.21875 0.0225048 -0.015625
0.1875 0.0239181 -0.015625 0.15625 0.0251141 -0.015625 0.125 0.0260925
-0.015625 0.09375 0.0268536 -0.015625 0.0625 0.0273972 -0.015625 0.03125
0.0277233 -0.015625 0 0.027832 -0.015625 -0.03125 0.0277233 -0.015625
-0.0625 0.0273972 -0.015625 -0.09375 0.0268536 -0.015625 -0.125 0.0260925
-0.015625 -0.15625 0.0251141 -0.015625 -0.1875 0.0239181 -0.015625 -0.21875
0.0225048 -0.015625 -0.25 0.0208741 -0.015625 -0.28125 0.0190258 -0.015625
-0.3125 0.0169602 -0.015625 -0.34375 0.014677 -0.015625 -0.375 0.0121765
-0.015625 -0.40625 0.00945856 -0.015625 -0.4375 0.00652312 -0.015625 -0.46875
0.00337029 -0.015625 -0.5 0 -0.015625 0.5 0 -0.0078125
0.46875 0.0035388 -0.0078125 0.4375 0.00684926 -0.0078125 0.40625 0.00993148
-0.0078125 0.375 0.0127853 -0.0078125 0.34375 0.0154109 -0.0078125 0.3125
0.0178082 -0.0078125 0.28125 0.0199771 -0.0078125 0.25 0.0219177 -0.0078125
0.21875 0.0236301 -0.0078125 0.1875 0.0251141 -0.0078125 0.15625 0.0263697
-0.0078125 0.125 0.0273972 -0.0078125 0.09375 0.0281962 -0.0078125 0.0625
0.028767 -0.0078125 0.03125 0.0291095 -0.0078125 0 0.0292237 -0.0078125
-0.03125 0.0291095 -0.0078125 -0.0625 0.028767 -0.0078125 -0.09375 0.0281962
-0.0078125 -0.125 0.0273972 -0.0078125 -0.15625 0.0263697 -0.0078125 -0.1875
0.0251141 -0.0078125 -0.21875 0.0236301 -0.0078125 -0.25 0.0219177 -0.0078125
-0.28125 0.0199771 -0.0078125 -0.3125 0.0178082 -0.0078125 -0.34375 0.0154109
-0.0078125 -0.375 0.0127853 -0.0078125 -0.40625 0.00993148 -0.0078125 -0.4375
0.00684926 -0.0078125 -0.46875 0.0035388 -0.0078125 -0.5 0 -0.0078125
0.5 0 0 0.46875 0.00605469 0 0.4375 0.0117188
0 0.40625 0.0169922 0 0.375 0.021875 0 0.34375
0.0263672 0 0.3125 0.0304688 0 0.28125 0.0341797 0
0.25 0.0375 0 0.21875 0.0404297 0 0.1875 0.0429688
0 0.15625 0.0451172 0 0.125 0.046875 0 0.09375
0.0482422 0 0.0625 0.0492188 0 0.03125 0.0498047 0
0 0.05 0 -0.03125 0.0498047 0 -0.0625 0.0492188
0 -0.09375 0.0482422 0 -0.125 0.046875 0 -0.15625
0.0451172 0 -0.1875 0.0429688 0 -0.21875 0.0404297 0
-0.25 0.0375 0 -0.28125 0.0341797 0 -0.3125 0.0304688
0 -0.34375 0.0263672 0 -0.375 0.021875 0 -0.40625
0.0169922 0 -0.4375 0.0117188 0 -0.46875 0.00605469 0
-0.5 0 0 0.5 0 0.0203125 0.46875 0.00605469
0.0203125 0.4375 0.0117188 0.0203125 0.40625 0.0169922 0.0203125 0.375
0.021875 0.0203125 0.34375 0.0263672 0.0203125 0.3125 0.0304688 0.0203125
0.28125 0.0341797 0.0203125 0.25 0.0375 0.0203125 0.21875 0.0404297
0.0203125 0.1875 0.0429688 0.0203125 0.15625 0.0451172 0.0203125 0.125
0.046875 0.0203125 0.09375 0.0482422 0.0203125 0.0625 0.0492188 0.0203125
0.03125 0.0498047 0.0203125 0 0.05 0.0203125 -0.03125 0.0498047
0.0203125 -0.0625 0.0492188 0.0203125 -0.09375 0.0482422 0.0203125 -0.125
0.046875 0.0203125 -0.15625 0.0451172 0.0203125 -0.1875 0.0429688 0.0203125
-0.21875 0.0404297 0.0203125 -0.25 0.0375 0.0203125 -0.28125 0.0341797
0.0203125 -0.3125 0.0304688 0.0203125 -0.34375 0.0263672 0.0203125 -0.375
0.021875 0.0203125 -0.40625 0.0169922 0.0203125 -0.4375 0.0117188 0.0203125
-0.46875 0.00605469 0.0203125 -0.5 0 0.0203125 1 0
0.0203125 0.96875 0 0.0203125 0.9375 0 0.0203125 0.90625
0 0.0203125 0.875 0 0.0203125 0.84375 0 0.0203125
0.8125 0 0.0203125 0.78125 0 0.0203125 0.75 0
0.0203125 0.71875 0 0.0203125 0.6875 0 0.0203125 0.65625
0 0.0203125 0.625 0 0.0203125 0.59375 0 0.0203125
0.5625 0 0.0203125 0.53125 0 0.0203125 0.5 0
0.0203125 0.46875 0.00605469 0.0203125 0.4375 0.0117188 0.0203125 0.40625
0.0169922 0.0203125 0.375 0.021875 0.0203125 0.34375 0.0263672 0.0203125
0.3125 0.0304688 0.0203125 0.28125 0.0341797 0.0203125 0.25 0.0375
0.0203125 0.21875 0.0404297 0.0203125 0.1875 0.0429688 0.0203125 0.15625
0.0451172 0.0203125 0.125 0.046875 0.0203125 0.09375 0.0482422 0.0203125
0.0625 0.0492188 0.0203125 0.03125 0.0498047 0.0203125 0 0.05
0.0203125 -0.03125 0.0498047 0.0203125 -0.0625 0.0492188 0.0203125 -0.09375
0.0482422 0.0203125 -0.125 0.046875 0.0203125 -0.15625 0.0451172 0.0203125
-0.1875 0.0429688 0.0203125 -0.21875 0.0404297 0.0203125 -0.25 0.0375
0.0203125 -0.28125 0.0341797 0.0203125 -0.3125 0.0304688 0.0203125 -0.34375
0.0263672 0.0203125 -0.375 0.021875 0.0203125 -0.40625 0.0169922 0.0203125
-0.4375 0.0117188 0.0203125 -0.46875 0.00605469 0.0203125 -0.5 0
0.0203125 -0.53125 0 0.0203125 -0.5625 0 0.0203125 -0.59375
0 0.0203125 -0.625 0 0.0203125 -0.65625 0 0.0203125
-0.6875 0 0.0203125 -0.71875 0 0.0203125 -0.75 0
[...]
<CellData>
<DataArray type="Float32" Name="zeta" format="ascii">
0 0 0 0 0 0 0 0
0 0 0 0 0 0 0 0
0 0 0 0 0 0 0 0
0 0 0 0 0 0 0 0
0 0 0 0 0 0 0 0
0 0 0 0 0 0 0 0
0 0 0 0 0 0 0 0
0 0 0 0 0 0 0 0
0 0 0 0 0 0 0 0
0 0 0 0 0 0 0 0
0 0 0 0 0 0 0 0
0 0 0 0 0 0 0 0
0 0 0 0 0 0 0 0
0 0 0 0 0 0 0 0
0 0 0 0 0 0 0 0
0 0 0 0 0 0 0 0
0 0 0 0 0 0 0 0
0 0 0 0 0 0 0 0
0 0 0 0 0 0 0 0
0 0 0 0 0 0 0 0
0 0 0 0 0 0 0 0
0 0 0 0 0 0 0 0
0 0 0 0 0 0 0 0
0 0 0 0 0 0 0 0
0 0 0 0 0 0 0 0
0 0 0 0 0 0 0 0
0 0 0 0 0 0 0 0
0 0 0 0 0 0 0 0
0 0 0 0 0 0 0 0
0 0 0 0 0 0 0 0
0 0 0 0 0 0 0 0
0 0 0 0 0 0 0 0
0 0 0 0 0 0 0 0
0 0 0 0 0 0 0 0
0 0 0 0 0 0 0 0
0 0 0 0 0 0 0 0
3.51844e-05 3.73516e-05 4.09647e-05 4.64163e-05 5.40107e-05 6.39796e-05 7.65246e-05 9.18916e-05
0.000110479 0.00013303 0.000160819 0.000196583 0.000243317 0.000318035 0.000399571 0.000774054
0.000612326 0.00202469 0.00424503 0.00503359 0.00464042 0.00346441 0.00186795 0.000178707
-0.00131766 -0.00241747 -0.00303433 -0.00319971 -0.00302668 -0.00265655 -0.00221316 -0.00178017
-0.0014021 -0.00109798 -0.000874887 -0.000734046 -0.000670278 -0.0006701 -0.000712373 -0.000771821
-0.000823274 -0.000844686 -0.000818688 -0.000733332 -0.000584956 -0.000377105 -0.000181427 0.000188993
-0.00127371 0.000354833 0.00471111 0.00731881 0.00779884 0.00656721 0.00443936 0.00217627
0.000253614 -0.00115395 -0.00206674 -0.00257553 -0.0027613 -0.002672 -0.00233696 -0.00179151
-0.00109251 -0.000318666 0.000440533 0.00109986 0.00159117 0.00187118 0.00192407 0.00176034
0.00141315 0.000933018 0.00038146 -0.000176058 -0.000677281 -0.00106972 -0.00131588 -0.00139664
-0.00131234 -0.00108177 -0.00073901 -0.000328919 9.84568e-05 0.000493694 0.000813475 0.00102514
0.00110984 0.00106404 0.000899166 0.00063968 0.000319665 -2.14679e-05 -0.00034371 -0.000611036
-0.000795336 -0.000879263 -0.000857734 -0.000737968 -0.000538118 -0.000284722 -9.30611e-06 0.000255436
0.000479436 0.000638582 0.000717229 0.000709641 0.000620238 0.000462666 0.000257852 3.13064e-05
-0.000189997 -0.000380785 -0.000520323 -0.000594622 -0.000597787 -0.000532373 -0.000408765 -0.00024368
-5.80021e-05 0.000125781 0.000286169 0.00040523 0.000469604 0.000475625 0.000410217 0.000338607
3.51025e-05 3.72597e-05 4.08558e-05 4.62804e-05 5.38352e-05 6.37479e-05 7.62154e-05 9.14749e-05
0.000109911 0.000132239 0.000159693 0.000194829 0.000240803 0.000311321 0.000398682 0.000665687
0.000841004 0.0012956 0.0019538 0.00259984 0.00306438 0.00307813 0.00247534 0.00130219
-0.000196908 -0.00167425 -0.00280272 -0.00338134 -0.0033863 -0.00295192 -0.00229588 -0.00162792
-0.00108488 -0.000714728 -0.000502533 -0.000410504 -0.00040601 -0.000468067 -0.000580161 -0.000722532
-0.000871175 -0.00100213 -0.00109615 -0.00114043 -0.0011291 -0.00105569 -0.00094654 -0.000653093
-0.000576557 0.000233212 0.0021983 0.00436832 0.00596324 0.00634854 0.00539234 0.00346997
0.00121474 -0.000787872 -0.00219326 -0.00292589 -0.00309166 -0.00286012 -0.00238058 -0.00175292
-0.00103928 -0.00028976 0.000439204 0.00108207 0.00157397 0.00186468 0.00192953 0.00177343
0.00142833 0.000946366 0.000391379 -0.000169573 -0.000673659 -0.00106847 -0.00131676 -0.00139946
-0.00131678 -0.00108726 -0.000744845 -0.000334372 9.39749e-05 0.000490556 0.000811833 0.00102496
0.00111097 0.00106622 0.000902088 0.00064299 0.000322994 -1.84707e-05 -0.000341342 -0.000609512
-0.000794764 -0.000879637 -0.000858939 -0.000739803 -0.000540325 -0.000287024 -1.14389e-05 0.000253697
0.000478253 0.000638043 0.000717345 0.000710349 0.000621413 0.000464141 0.000259441 3.2825e-05
-0.000188714 -0.000379864 -0.000519844 -0.000594612 -0.000598216 -0.000533166 -0.00040981 -0.000244844
-5.91491e-05 0.000124773 0.000285399 0.000404761 0.00046946 0.000475794 0.000410633 0.00033923
3.49165e-05 3.70513e-05 4.06087e-05 4.59726e-05 5.34379e-05 6.32244e-05 7.55173e-05 9.0536e-05
0.000108635 0.000130467 0.00015718 0.000190994 0.00023512 0.000298717 0.000387081 0.000550447
0.00079849 0.00113622 0.00150852 0.00182303 0.0020269 0.00208018 0.00191874 0.00145605
0.000640223 -0.000473219 -0.00169139 -0.0027299 -0.0033209 -0.00332868 -0.00280999 -0.00198437
-0.00113146 -0.000473297 -0.000104223 4.04897e-06 -5.68747e-05 -0.000197627 -0.000364646 -0.000536021
-0.000700277 -0.000841447 -0.00093865 -0.000973239 -0.000934537 -0.000816513 -0.000623703 -0.000323225
9.61102e-05 0.000514109 0.00118364 0.00226994 0.00364316 0.00481765 0.00520568 0.00447508
0.0027491 0.000536382 -0.00152872 -0.00295996 -0.00356566 -0.00343233 -0.00280282 -0.0019392
-0.00103562 -0.000198141 0.000529556 0.001128 0.00157636 0.00184736 0.00191707 0.00177852
0.00145036 0.000976874 0.000420745 -0.000147783 -0.000661655 -0.0010654 -0.00132044 -0.0014077
-0.00132785 -0.00109982 -0.000757705 -0.000346389 8.38739e-05 0.000483235 0.000807808 0.00102434
0.00111346 0.00107124 0.000908863 0.000650643 0.000330653 -1.16078e-05 -0.000335939 -0.000606039
-0.000793455 -0.000880473 -0.000861664 -0.000743968 -0.000545354 -0.000292287 -1.63274e-05 0.000249701
0.000475527 0.000636792 0.000717593 0.000711952 0.000624088 0.00046751 0.000263078 3.63055e-05
-0.000185769 -0.00037775 -0.000518743 -0.000594582 -0.00059919 -0.00053497 -0.000412189 -0.000247499
-6.17734e-05 0.000122462 0.000283629 0.000403682 0.000469128 0.000476178 0.000411583 0.00034065
3.45987e-05 3.66955e-05 4.01875e-05 4.54487e-05 5.27629e-05 6.23369e-05 7.43373e-05 8.89542e-05
0.000106494 0.000127518 0.000153025 0.000184827 0.000225806 0.000281702 0.00036032 0.000478973
0.000639154 0.000827191 0.0010421 0.00126421 0.00145274 0.00154444 0.00147659 0.00120778
0.000722705 3.13359e-05 -0.000820428 -0.00172925 -0.00252608 -0.00300912 -0.00302096 -0.00253425
-0.00169028 -0.000754081 -1.81933e-06 0.00039646 0.000430702 0.000216562 -9.26065e-05 -0.00038451
-0.000614347 -0.000782192 -0.000896196 -0.000952784 -0.000939773 -0.000847069 -0.000672964 -0.000414392
-5.79128e-05 0.000439068 0.00102557 0.00168088 0.00242954 0.00322506 0.0038597 0.00400403
0.00338176 0.00196336 3.9681e-05 -0.00187983 -0.00328277 -0.00385802 -0.0035858 -0.00268985
-0.00150339 -0.000330604 0.000635493 0.00132309 0.00174232 0.00193393 0.00193404 0.00176449
0.00144173 0.00099109 0.000455351 -0.000106414 -0.000627966 -0.00104802 -0.00132072 -0.00142179
-0.00134998 -0.00112477 -0.000781868 -0.00036762 6.67877e-05 0.000471057 0.00080103 0.00102312
0.00111751 0.00107974 0.000920557 0.000664002 0.000344076 4.1106e-07 -0.000326508 -0.000599994
-0.000791164 -0.00088188 -0.000866325 -0.000751122 -0.000554021 -0.000301387 -2.48097e-05 0.000242739
0.000470746 0.000634556 0.000717954 0.000714671 0.000628686 0.000473334 0.000269387 4.23527e-05
-0.000180646 -0.000374064 -0.000516809 -0.000594497 -0.000600842 -0.000538062 -0.000416289 -0.000252093
-6.63256e-05 0.000118446 0.000280547 0.000401796 0.000468539 0.000476829 0.000413212 0.000343094
3.41179e-05 3.61579e-05 3.95524e-05 4.46607e-05 5.17507e-05 6.10104e-05 7.25808e-05 8.66122e-05
0.000103346 0.000123226 0.000147054 0.000176213 0.000212945 0.000260921 0.000325582 0.000414954
0.000529528 0.000657233 0.000794404 0.000923693 0.00102647 0.00108239 0.00106384 0.000934753
0.000660365 0.000223956 -0.00035945 -0.00103785 -0.00172334 -0.00229724 -0.00262483 -0.00258981
-0.00214764 -0.00137372 -0.000467714 0.000308665 0.000740414 0.000753787 0.000437394 -2.27295e-05
-0.000447403 -0.000739064 -0.000888962 -0.000932917 -0.000902352 -0.00080452 -0.000631697 -0.000376759
-4.04204e-05 0.00035 0.000805384 0.00131527 0.00184861 0.00236306 0.00279458 0.00303346
0.00292295 0.00231424 0.00116552 -0.00037616 -0.00197655 -0.00321882 -0.00376469 -0.00348849
-0.00251667 -0.00116025 0.000216431 0.00132264 0.00201102 0.00227592 0.00220218 0.00190172
0.00146883 0.000965527 0.000430347 -0.000104451 -0.000600781 -0.00101345 -0.00129797 -0.00142173
-0.00137275 -0.00116285 -0.000825122 -0.00040743 3.56623e-05 0.000450592 0.000791057 0.00102249
0.00112475 0.00109326 0.000938561 0.000684435 0.000364709 1.90615e-05 -0.000311708 -0.000590373
-0.000787379 -0.000883883 -0.000873424 -0.000762116 -0.000567376 -0.000315438 -3.79512e-05 0.000231888
0.000463212 0.000630929 0.000718352 0.000718753 0.00063572 0.000482307 0.00027914 5.17293e-05
-0.000172673 -0.000368288 -0.000513725 -0.00059427 -0.000603313 -0.000542785 -0.000422597 -0.000259186
-7.337e-05 0.000112217 0.000275751 0.00039884 0.000467579 0.000477784 0.000415688 0.00034684
3.34403e-05 3.54016e-05 3.86616e-05 4.35594e-05 5.03422e-05 5.91735e-05 7.01621e-05 8.34101e-05
9.90809e-05 0.000117488 0.000139206 0.000165212 0.000197045 0.000236995 0.000288243 0.000354545
0.000432372 0.000513122 0.00059878 0.000681331 0.000748143 0.000781969 0.000763723 0.000675413
0.000501362 0.00022937 -0.000144698 -0.000608289 -0.0011235 -0.00162404 -0.00202093 -0.0022171
-0.00213077 -0.00172703 -0.0010508 -0.000242673 0.000485403 0.000921877 0.00094791 0.000597227
3.99928e-05 -0.0005052 -0.000876024 -0.00102234 -0.000987601 -0.000845486 -0.000645238 -0.000397649
-9.54758e-05 0.000258729 0.000650229 0.00105924 0.00146478 0.00183765 0.0021366 0.00230794
0.00228656 0.00200123 0.00139387 0.000457573 -0.000719606 -0.00193556 -0.00290736 -0.00335824
-0.003125 -0.00223346 -0.000901439 0.000535265 0.00173951 0.00247924 0.00268076 0.00241635
0.00184478 0.00113975 0.000437659 -0.000181339 -0.000683639 -0.00105968 -0.00130452 -0.00141006
-0.0013686 -0.00118177 -0.000867894 -0.000463719 -1.98601e-05 0.000407713 0.000767045 0.00101786
0.00113618 0.00111587 0.000967538 0.000715748 0.000395144 4.59984e-05 -0.000290428 -0.000576384
-0.000781601 -0.000886363 -0.000883309 -0.000777773 -0.00058664 -0.000335896 -5.72355e-05 0.00021584
0.000451953 0.000625358 0.000718658 0.000724452 0.000645758 0.000495231 0.000293289 6.54293e-05
-0.000160929 -0.00035969 -0.000509032 -0.000593753 -0.000606755 -0.000549539 -0.000431692 -0.000269459
-8.36152e-05 0.000103115 0.000268696 0.000394436 0.000466069 0.000479066 0.000419202 0.000352219
3.25312e-05 3.439e-05 3.74746e-05 4.2099e-05 4.84847e-05 5.67662e-05 6.70158e-05 7.92823e-05
9.36462e-05 0.000110287 0.000129558 0.000152073 0.000178775 0.000210984 0.000250383 0.000298759
0.000352109 0.000404238 0.000456767 0.000504288 0.000539865 0.000554802 0.000538321 0.00047795
0.000361433 0.000179713 -7.01991e-05 -0.000382865 -0.000741876 -0.00111673 -0.00146067 -0.00171261
-0.00180588 -0.00168427 -0.0013235 -0.000753507 -7.25154e-05 0.000560527 0.000966334 0.00101366
0.000686387 0.000106389 -0.000513062 -0.000964583 -0.00113735 -0.00104587 -0.000786352 -0.000460837
-0.000131979 0.000203263 0.00054352 0.00088074 0.00119935 0.00147801 0.00169058 0.00180659
0.00179232 0.00161396 0.00124389 0.000670759 -8.55347e-05 -0.0009568 -0.00181621 -0.0024878
-0.00278465 -0.00257025 -0.00182084 -0.000658128 0.00066959 0.00185722 0.00263779 0.00286379
0.0025426 0.00181554 0.000895156 -8.77305e-06 -0.000744955 -0.00124177 -0.00149599 -0.00154366
-0.00143108 -0.00119763 -0.000873004 -0.000483783 -6.13809e-05 0.000354536 0.00071907 0.000989677
0.00113468 0.00113952 0.00100893 0.000765321 0.000444164 8.81588e-05 -0.000258772 -0.000556757
-0.000774124 -0.000890256 -0.000897101 -0.000799335 -0.000613235 -0.000364369 -8.43461e-05 0.000193014
0.000435657 0.000616932 0.000718452 0.00073187 0.000659406 0.000513123 0.000313102 8.47817e-05
-0.000144204 -0.000347308 -0.000502093 -0.000592664 -0.000611241 -0.000558726 -0.000444247 -0.000283772
-9.79899e-05 9.02582e-05 0.000258646 0.00038806 0.000463731 0.000480645 0.00042395 0.000359635
3.13584e-05 3.30894e-05 3.59562e-05 4.02424e-05 4.61398e-05 5.37513e-05 6.31107e-05 7.42138e-05
8.70616e-05 0.00010171 0.000118321 0.00013721 0.000158873 0.000183981 0.000213324 0.000247592
0.00028296 0.000315112 0.000345926 0.00037206 0.000389008 0.00039108 0.000371749 0.000324131
0.000241478 0.00011796 -4.99066e-05 -0.000261176 -0.000508255 -0.000775189 -0.00103681 -0.00125896
-0.00140048 -0.00141853 -0.00127796 -0.000964764 -0.000500654 4.6294e-05 0.000562705 0.000910809
0.000971947 0.000701282 0.000166387 -0.000460699 -0.000967525 -0.00119347 -0.00109716 -0.000757085
-0.000335021 8.43689e-05 0.00046925 0.00079593 0.00105911 0.00125977 0.00139551 0.00145659
0.00142719 0.00128959 0.00102965 0.000642492 0.000138309 -0.000451951 -0.00107166 -0.00163665
-0.00204058 -0.00217187 -0.00194335 -0.00132838 -0.000390038 0.000712983 0.00175408 0.00249686
0.00276536 0.00249993 0.00177613 0.000778577 -0.000259153 -0.00112456 -0.00168 -0.00188366
-0.00177671 -0.00144878 -0.000999753 -0.000512593 -4.3363e-05 0.000374446 0.000719324 0.000972949
0.00111762 0.00113966 0.00103551 0.000816497 0.000509705 0.000154589 -0.000203383 -0.000519987
-0.000758608 -0.000894626 -0.000917533 -0.000830967 -0.000651112 -0.000403906 -0.000121493 0.000161704
0.000412907 0.000604543 0.000717101 0.000741002 0.000677299 0.000537136 0.000340059 0.000111399
-0.000120923 -0.000329762 -0.000491867 -0.000590421 -0.000616703 -0.000570768 -0.000461079 -0.000303188
-0.000117666 7.2495e-05 0.000244579 0.000378921 0.000460087 0.000482411 0.000430169 0.000369615
2.98957e-05 3.14742e-05 3.40819e-05 3.7968e-05 4.32918e-05 5.0124e-05 5.84616e-05 6.82532e-05
7.94315e-05 9.1951e-05 0.000105823 0.000121143 0.000138101 0.000156959 0.000178005 0.000201406
0.000223871 0.000242461 0.000258809 0.000270765 0.000275605 0.00026998 0.000249985 0.000211379
0.000150027 6.25142e-05 -5.31375e-05 -0.000196648 -0.000364496 -0.000548794 -0.000736286 -0.000907947
-0.0010396 -0.00110395 -0.00107435 -0.000930699 -0.000667284 -0.000301463 0.000119483 0.000517561
0.000794418 0.000856349 0.000651392 0.00020551 -0.000364048 -0.000876756 -0.00115638 -0.00110757
-0.000785997 -0.000334284 0.0001672 0.000625193 0.000978636 0.001203 0.00130302 0.00129835
0.00120947 0.00104931 0.000822232 0.00052861 0.000171941 -0.000234532 -0.000663558 -0.0010727
-0.00140638 -0.00160132 -0.00159626 -0.00134611 -0.000839465 -0.000115117 0.000729647 0.0015465
0.00216321 0.00242659 0.00224933 0.00164349 0.000726346 -0.000306914 -0.00123601 -0.00187592
-0.00212381 -0.00197736 -0.00152113 -0.000889686 -0.000223678 0.000365146 0.000810686 0.00109053
0.00121211 0.00119636 0.0010663 0.00084334 0.00054944 0.00021121 -0.000138118 -0.000460588
-0.000718784 -0.000882377 -0.0009336 -0.000870084 -0.00070463 -0.000462439 -0.000176793 0.00011581
0.000380315 0.00058708 0.000714867 0.0007527 0.000700507 0.000568549 0.000375758 0.000147207
-8.90112e-05 -0.000305119 -0.000476842 -0.000586089 -0.000622828 -0.00058594 -0.000482985 -0.000328952
-0.000144191 4.81784e-05 0.000225002 0.000365901 0.000454514 0.000484214 0.000438073 0.000382603
2.81278e-05 2.95317e-05 3.18442e-05 3.52767e-05 3.99556e-05 4.59208e-05 5.31383e-05 6.1519e-05
7.09449e-05 8.12973e-05 9.24827e-05 0.000104451 0.000117199 0.000130755 0.000145141 0.00016028
0.000173511 0.000182909 0.000189875 0.000193045 0.000190726 0.000180886 0.000161231 0.000129347
8.28912e-05 1.98865e-05 -6.08677e-05 -0.000159285 -0.000273427 -0.000398953 -0.000528645 -0.000652089
-0.000755692 -0.000823304 -0.000837729 -0.000783302 -0.00064961 -0.000436138 -0.000157184 0.000154267
0.000445869 0.000651183 0.00070329 0.000557053 0.000215196 -0.000253367 -0.000717871 -0.00102286
-0.00104731 -0.000827991 -0.000414216 0.000102355 0.000614125 0.00102511 0.00127345 0.00134059
0.00124622 0.00103306 0.000749106 0.00043385 0.000112551 -0.000201545 -0.000500051 -0.000771532
-0.000996346 -0.00114604 -0.00118728 -0.0010891 -0.000831948 -0.000417022 0.000125969 0.000734718
0.0013169 0.0017619 0.00196232 0.00184195 0.0013829 0.000642061 -0.00025169 -0.00112246
-0.0017896 -0.00211496 -0.00203967 -0.00159809 -0.000904447 -0.000117496 0.000603855 0.00113904
0.00142723 0.00146801 0.00130554 0.00100543 0.000633706 0.000244284 -0.000124158 -0.000444674
-0.000696782 -0.000863305 -0.000930865 -0.00089312 -0.000754433 -0.000531722 -0.000253305 4.50475e-05
0.000325663 0.000554613 0.000706255 0.00076603 0.000731436 0.0006114 0.000424412 0.000195768
-4.57285e-05 -0.000271253 -0.000455269 -0.000578287 -0.000628806 -0.000604255 -0.000510886 -0.000362702
-0.000179555 1.53534e-05 0.000198221 0.000347612 0.00044589 0.000485225 0.000447262 0.000398787
2.60551e-05 2.72678e-05 2.92576e-05 3.21977e-05 3.6182e-05 4.12244e-05 4.72672e-05 5.41969e-05
6.18648e-05 7.01085e-05 7.87731e-05 8.77251e-05 9.68564e-05 0.000106074 0.000115279 0.000124305
0.0001311 0.000134462 0.000135537 0.000133487 0.000127301 0.000115786 9.76163e-05 7.14142e-05
3.588e-05 -1.00386e-05 -6.69306e-05 -0.000134669 -0.000212117 -0.000296821 -0.000384729 -0.000469995
-0.000544961 -0.000600382 -0.000626022 -0.000611725 -0.000549063 -0.000433576 -0.000267436 -6.21274e-05
0.000159546 0.000363243 0.000505985 0.000543524 0.000442769 0.00019778 -0.000155336 -0.00053427
-0.000801513 -0.000888868 -0.000777926 -0.000475788 -3.56691e-05 0.000454573 0.000894458 0.00119648
0.00130737 0.00121849 0.000962992 0.000601842 0.000204476 -0.00016897 -0.000478491 -0.000706031
-0.000849806 -0.000915088 -0.000905959 -0.000821264 -0.000655859 -0.000406035 -7.67466e-05 0.000312057
0.00072217 0.00109833 0.00137448 0.00148493 0.00137921 0.00103801 0.000486046 -0.000202966
-0.00091349 -0.00150864 -0.00186075 -0.00188448 -0.00156224 -0.000953013 -0.000180394 0.000597748
0.00122887 0.00160246 0.00167298 0.00146303 0.00104815 0.000530271 9.64326e-06 -0.000436081
-0.000761153 -0.000949909 -0.00100804 -0.000952452 -0.000803913 -0.000584134 -0.000316293 -2.66014e-05
0.000255394 0.000498908 0.000676025 0.000766419 0.000761039 0.000663638 0.000489875 0.000264464
1.72369e-05 -0.000221038 -0.000422441 -0.000564966 -0.000634676 -0.000626881 -0.00054625 -0.00040586
-0.00022529 -2.79993e-05 0.000161568 0.000321042 0.000431561 0.000483882 0.000457649 0.000419394
2.36988e-05 2.47106e-05 2.63629e-05 2.87909e-05 3.20593e-05 3.61615e-05 4.10257e-05 4.65278e-05
5.25077e-05 5.87869e-05 6.51856e-05 7.15347e-05 7.76818e-05 8.34862e-05 8.88068e-05 9.34697e-05
9.59597e-05 9.55713e-05 9.32156e-05 8.84004e-05 8.05416e-05 6.89664e-05 5.29408e-05 3.17197e-05
4.61813e-06 -2.88915e-05 -6.90588e-05 -0.000115715 -0.000168116 -0.000224793 -0.000283405 -0.000340638
-0.000392175 -0.000432781 -0.000456555 -0.00045741 -0.000429804 -0.00036976 -0.000276158 -0.000152166
-6.61762e-06 0.000145069 0.000280963 0.000374349 0.00039776 0.000329649 0.00016337 -8.36833e-05
-0.000345583 -0.000551617 -0.000662569 -0.000637014 -0.000459666 -0.000148789 0.000244022 0.000643088
0.00096544 0.00114091 0.0011298 0.000932811 0.000590142 0.00017015 -0.000248679 -0.000596731
-0.000827553 -0.00092379 -0.00089426 -0.000764688 -0.000566367 -0.000327026 -6.66583e-05 0.00020129
0.000465053 0.000708887 0.000909484 0.00103631 0.00105633 0.000942116 0.000681476 0.000286037
-0.000203811 -0.000719907 -0.00117465 -0.00147646 -0.00155001 -0.00135673 -0.000909701 -0.000277476
0.000426219 0.00106587 0.00151525 0.00168776 0.00155703 0.00116181 0.00059378 -2.75832e-05
-0.000584978 -0.000989192 -0.00119415 -0.00119855 -0.00103625 -0.000760452 -0.000428021 -8.83136e-05
0.000221644 0.000476682 0.000660421 0.000762433 0.000777324 0.000705783 0.000556423 0.00034681
0.000102522 -0.00014595 -0.000367719 -0.000536236 -0.000633052 -0.000649903 -0.000589005 -0.000461886
-0.000287258 -8.83874e-05 0.000109661 0.000283006 0.000410516 0.000480414 0.000469567 0.000444068
2.11031e-05 2.19132e-05 2.32278e-05 2.51467e-05 2.77099e-05 3.08963e-05 3.46298e-05 3.87884e-05
4.32174e-05 4.77442e-05 5.21917e-05 5.63891e-05 6.01787e-05 6.34153e-05 6.59603e-05 6.76647e-05
6.74582e-05 6.49616e-05 6.08744e-05 5.49276e-05 4.68067e-05 3.61556e-05 2.25923e-05 5.73895e-06
-1.47366e-05 -3.90654e-05 -6.73122e-05 -9.9299e-05 -0.000134524 -0.000172081 -0.000210589 -0.000248137
-0.000282279 -0.000310067 -0.000328172 -0.000333098 -0.000321515 -0.000290731 -0.000239292 -0.000167676
-7.9031e-05 2.01924e-05 0.000119893 0.00020652 0.000264143 0.000276661 0.000231322 0.000123514
-3.04938e-05 -0.000195179 -0.000344271 -0.000442472 -0.000458641 -0.000373481 -0.000186438 8.04747e-05
0.000383794 0.00066545 0.000864534 0.000931514 0.000841238 0.000600916 0.000250349 -0.000146201