<VTKFile type="PolyData">
<PolyData>
<Piece NumberOfPoints="3555" NumberOfVerts="0" NumberOfLines="0" NumberOfStrips="0" NumberOfPolys="3360">
<Points>
<DataArray type="Float32" NumberOfComponents="3" format="ascii">
0.5 0 -0.0625 0.46875 0 -0.0625 0.4375 0
-0.0625 0.40625 0 -0.0625 0.375 0 -0.0625 0.34375
0 -0.0625 0.3125 0 -0.0625 0.28125 0 -0.0625
0.25 0 -0.0625 0.21875 0 -0.0625 0.1875 0
-0.0625 0.15625 0 -0.0625 0.125 0 -0.0625 0.09375
0 -0.0625 0.0625 0 -0.0625 0.03125 0 -0.0625
0 0 -0.0625 -0.03125 0 -0.0625 -0.0625 0
-0.0625 -0.09375 0 -0.0625 -0.125 0 -0.0625 -0.15625
0 -0.0625 -0.1875 0 -0.0625 -0.21875 0 -0.0625
-0.25 0 -0.0625 -0.28125 0 -0.0625 -0.3125 0
-0.0625 -0.34375 0 -0.0625 -0.375 0 -0.0625 -0.40625
0 -0.0625 -0.4375 0 -0.0625 -0.46875 0 -0.0625
-0.5 0 -0.0625 0.5 0 -0.0546875 0.46875 0.000842573
-0.0546875 0.4375 0.00163078 -0.0546875 0.40625 0.00236463 -0.0546875 0.375
0.00304413 -0.0546875 0.34375 0.00366926 -0.0546875 0.3125 0.00424003 -0.0546875
0.28125 0.00475645 -0.0546875 0.25 0.0052185 -0.0546875 0.21875 0.0056262
-0.0546875 0.1875 0.00597954 -0.0546875 0.15625 0.00627849 -0.0546875 0.125
0.00652312 -0.0546875 0.09375 0.00671341 -0.0546875 0.0625 0.00684926 -0.0546875
0.03125 0.00693084 -0.0546875 0 0.00695804 -0.0546875 -0.03125 0.00693084
-0.0546875 -0.0625 0.00684926 -0.0546875 -0.09375 0.00671341 -0.0546875 -0.125
0.00652312 -0.0546875 -0.15625 0.00627849 -0.0546875 -0.1875 0.00597954 -0.0546875
-0.21875 0.0056262 -0.0546875 -0.25 0.0052185 -0.0546875 -0.28125 0.00475645
-0.0546875 -0.3125 0.00424003 -0.0546875 -0.34375 0.00366926 -0.0546875 -0.375
0.00304413 -0.0546875 -0.40625 0.00236463 -0.0546875 -0.4375 0.00163078 -0.0546875
-0.46875 0.000842573 -0.0546875 -0.5 0 -0.0546875 0.5 0
-0.046875 0.46875 0.0015728 -0.046875 0.4375 0.00304413 -0.046875 0.40625
0.00441398 -0.046875 0.375 0.00568237 -0.046875 0.34375 0.00684926 -0.046875
0.3125 0.00791475 -0.046875 0.28125 0.0088787 -0.046875 0.25 0.00974124
-0.046875 0.21875 0.0105022 -0.046875 0.1875 0.0111618 -0.046875 0.15625
0.0117199 -0.046875 0.125 0.0121765 -0.046875 0.09375 0.0125317 -0.046875
0.0625 0.0127853 -0.046875 0.03125 0.0129376 -0.046875 0 0.0129883
-0.046875 -0.03125 0.0129376 -0.046875 -0.0625 0.0127853 -0.046875 -0.09375
0.0125317 -0.046875 -0.125 0.0121765 -0.046875 -0.15625 0.0117199 -0.046875
-0.1875 0.0111618 -0.046875 -0.21875 0.0105022 -0.046875 -0.25 0.00974124
-0.046875 -0.28125 0.0088787 -0.046875 -0.3125 0.00791475 -0.046875 -0.34375
0.00684926 -0.046875 -0.375 0.00568237 -0.046875 -0.40625 0.00441398 -0.046875
-0.4375 0.00304413 -0.046875 -0.46875 0.0015728 -0.046875 -0.5 0
-0.046875 0.5 0 -0.0390625 0.46875 0.00219069 -0.0390625 0.4375
0.00424003 -0.0390625 0.40625 0.00614804 -0.0390625 0.375 0.00791475 -0.0390625
0.34375 0.00954008 -0.0390625 0.3125 0.0110241 -0.0390625 0.28125 0.0123667
-0.0390625 0.25 0.0135681 -0.0390625 0.21875 0.0146281 -0.0390625 0.1875
0.0155468 -0.0390625 0.15625 0.0163241 -0.0390625 0.125 0.0169602 -0.0390625
0.09375 0.0174548 -0.0390625 0.0625 0.0178082 -0.0390625 0.03125 0.0180201
-0.0390625 0 0.0180909 -0.0390625 -0.03125 0.0180201 -0.0390625 -0.0625
0.0178082 -0.0390625 -0.09375 0.0174548 -0.0390625 -0.125 0.0169602 -0.0390625
-0.15625 0.0163241 -0.0390625 -0.1875 0.0155468 -0.0390625 -0.21875 0.0146281
-0.0390625 -0.25 0.0135681 -0.0390625 -0.28125 0.0123667 -0.0390625 -0.3125
0.0110241 -0.0390625 -0.34375 0.00954008 -0.0390625 -0.375 0.00791475 -0.0390625
-0.40625 0.00614804 -0.0390625 -0.4375 0.00424003 -0.0390625 -0.46875 0.00219069
-0.0390625 -0.5 0 -0.0390625 0.5 0 -0.03125 0.46875
0.00269623 -0.03125 0.4375 0.0052185 -0.03125 0.40625 0.00756681 -0.03125
0.375 0.00974124 -0.03125 0.34375 0.0117416 -0.03125 0.3125 0.0135681
-0.03125 0.28125 0.0152207 -0.03125 0.25 0.0166992 -0.03125 0.21875
0.0180039 -0.03125 0.1875 0.0191345 -0.03125 0.15625 0.0200913 -0.03125
0.125 0.0208741 -0.03125 0.09375 0.0214828 -0.03125 0.0625 0.0219177
-0.03125 0.03125 0.0221786 -0.03125 0 0.0222656 -0.03125 -0.03125
0.0221786 -0.03125 -0.0625 0.0219177 -0.03125 -0.09375 0.0214828 -0.03125
-0.125 0.0208741 -0.03125 -0.15625 0.0200913 -0.03125 -0.1875 0.0191345
-0.03125 -0.21875 0.0180039 -0.03125 -0.25 0.0166992 -0.03125 -0.28125
0.0152207 -0.03125 -0.3125 0.0135681 -0.03125 -0.34375 0.0117416 -0.03125
-0.375 0.00974124 -0.03125 -0.40625 0.00756681 -0.03125 -0.4375 0.0052185
-0.03125 -0.46875 0.00269623 -0.03125 -0.5 0 -0.03125 0.5
0 -0.0234375 0.46875 0.00308943 -0.0234375 0.4375 0.00597954 -0.0234375
0.40625 0.00867035 -0.0234375 0.375 0.0111618 -0.0234375 0.34375 0.013454
-0.0234375 0.3125 0.0155468 -0.0234375 0.28125 0.0174403 -0.0234375 0.25
0.0191345 -0.0234375 0.21875 0.0206294 -0.0234375 0.1875 0.021925 -0.0234375
0.15625 0.0230212 -0.0234375 0.125 0.0239181 -0.0234375 0.09375 0.0246157
-0.0234375 0.0625 0.0251141 -0.0234375 0.03125 0.025413 -0.0234375 0
0.0255127 -0.0234375 -0.03125 0.025413 -0.0234375 -0.0625 0.0251141 -0.0234375
-0.09375 0.0246157 -0.0234375 -0.125 0.0239181 -0.0234375 -0.15625 0.0230212
-0.0234375 -0.1875 0.021925 -0.0234375 -0.21875 0.0206294 -0.0234375 -0.25
0.0191345 -0.0234375 -0.28125 0.0174403 -0.0234375 -0.3125 0.0155468 -0.0234375
-0.34375 0.013454 -0.0234375 -0.375 0.0111618 -0.0234375 -0.40625 0.00867035
-0.0234375 -0.4375 0.00597954 -0.0234375 -0.46875 0.00308943 -0.0234375 -0.5
0 -0.0234375 0.5 0 -0.015625 0.46875 0.00337029 -0.015625
0.4375 0.00652312 -0.015625 0.40625 0.00945856 -0.015625 0.375 0.0121765
-0.015625 0.34375 0.014677 -0.015625 0.3125 0.0169602 -0.015625 0.28125
0.0190258 -0.015625 0.25 0.0208741 -0.015625 0.21875 0.0225048 -0.015625
0.1875 0.0239181 -0.015625 0.15625 0.0251141 -0.015625 0.125 0.0260925
-0.015625 0.09375 0.0268536 -0.015625 0.0625 0.0273972 -0.015625 0.03125
0.0277233 -0.015625 0 0.027832 -0.015625 -0.03125 0.0277233 -0.015625
-0.0625 0.0273972 -0.015625 -0.09375 0.0268536 -0.015625 -0.125 0.0260925
-0.015625 -0.15625 0.0251141 -0.015625 -0.1875 0.0239181 -0.015625 -0.21875
0.0225048 -0.015625 -0.25 0.0208741 -0.015625 -0.28125 0.0190258 -0.015625
-0.3125 0.0169602 -0.015625 -0.34375 0.014677 -0.015625 -0.375 0.0121765
-0.015625 -0.40625 0.00945856 -0.015625 -0.4375 0.00652312 -0.015625 -0.46875
0.00337029 -0.015625 -0.5 0 -0.015625 0.5 0 -0.0078125
0.46875 0.0035388 -0.0078125 0.4375 0.00684926 -0.0078125 0.40625 0.00993148
-0.0078125 0.375 0.0127853 -0.0078125 0.34375 0.0154109 -0.0078125 0.3125
0.0178082 -0.0078125 0.28125 0.0199771 -0.0078125 0.25 0.0219177 -0.0078125
0.21875 0.0236301 -0.0078125 0.1875 0.0251141 -0.0078125 0.15625 0.0263697
-0.0078125 0.125 0.0273972 -0.0078125 0.09375 0.0281962 -0.0078125 0.0625
0.028767 -0.0078125 0.03125 0.0291095 -0.0078125 0 0.0292237 -0.0078125
-0.03125 0.0291095 -0.0078125 -0.0625 0.028767 -0.0078125 -0.09375 0.0281962
-0.0078125 -0.125 0.0273972 -0.0078125 -0.15625 0.0263697 -0.0078125 -0.1875
0.0251141 -0.0078125 -0.21875 0.0236301 -0.0078125 -0.25 0.0219177 -0.0078125
-0.28125 0.0199771 -0.0078125 -0.3125 0.0178082 -0.0078125 -0.34375 0.0154109
-0.0078125 -0.375 0.0127853 -0.0078125 -0.40625 0.00993148 -0.0078125 -0.4375
0.00684926 -0.0078125 -0.46875 0.0035388 -0.0078125 -0.5 0 -0.0078125
0.5 0 0 0.46875 0.00605469 0 0.4375 0.0117188
0 0.40625 0.0169922 0 0.375 0.021875 0 0.34375
0.0263672 0 0.3125 0.0304688 0 0.28125 0.0341797 0
0.25 0.0375 0 0.21875 0.0404297 0 0.1875 0.0429688
0 0.15625 0.0451172 0 0.125 0.046875 0 0.09375
0.0482422 0 0.0625 0.0492188 0 0.03125 0.0498047 0
0 0.05 0 -0.03125 0.0498047 0 -0.0625 0.0492188
0 -0.09375 0.0482422 0 -0.125 0.046875 0 -0.15625
0.0451172 0 -0.1875 0.0429688 0 -0.21875 0.0404297 0
-0.25 0.0375 0 -0.28125 0.0341797 0 -0.3125 0.0304688
0 -0.34375 0.0263672 0 -0.375 0.021875 0 -0.40625
0.0169922 0 -0.4375 0.0117188 0 -0.46875 0.00605469 0
-0.5 0 0 0.5 0 0.0203125 0.46875 0.00605469
0.0203125 0.4375 0.0117188 0.0203125 0.40625 0.0169922 0.0203125 0.375
0.021875 0.0203125 0.34375 0.0263672 0.0203125 0.3125 0.0304688 0.0203125
0.28125 0.0341797 0.0203125 0.25 0.0375 0.0203125 0.21875 0.0404297
0.0203125 0.1875 0.0429688 0.0203125 0.15625 0.0451172 0.0203125 0.125
0.046875 0.0203125 0.09375 0.0482422 0.0203125 0.0625 0.0492188 0.0203125
0.03125 0.0498047 0.0203125 0 0.05 0.0203125 -0.03125 0.0498047
0.0203125 -0.0625 0.0492188 0.0203125 -0.09375 0.0482422 0.0203125 -0.125
0.046875 0.0203125 -0.15625 0.0451172 0.0203125 -0.1875 0.0429688 0.0203125
-0.21875 0.0404297 0.0203125 -0.25 0.0375 0.0203125 -0.28125 0.0341797
0.0203125 -0.3125 0.0304688 0.0203125 -0.34375 0.0263672 0.0203125 -0.375
0.021875 0.0203125 -0.40625 0.0169922 0.0203125 -0.4375 0.0117188 0.0203125
-0.46875 0.00605469 0.0203125 -0.5 0 0.0203125 1 0
0.0203125 0.96875 0 0.0203125 0.9375 0 0.0203125 0.90625
0 0.0203125 0.875 0 0.0203125 0.84375 0 0.0203125
0.8125 0 0.0203125 0.78125 0 0.0203125 0.75 0
0.0203125 0.71875 0 0.0203125 0.6875 0 0.0203125 0.65625
0 0.0203125 0.625 0 0.0203125 0.59375 0 0.0203125
0.5625 0 0.0203125 0.53125 0 0.0203125 0.5 0
0.0203125 0.46875 0.00605469 0.0203125 0.4375 0.0117188 0.0203125 0.40625
0.0169922 0.0203125 0.375 0.021875 0.0203125 0.34375 0.0263672 0.0203125
0.3125 0.0304688 0.0203125 0.28125 0.0341797 0.0203125 0.25 0.0375
0.0203125 0.21875 0.0404297 0.0203125 0.1875 0.0429688 0.0203125 0.15625
0.0451172 0.0203125 0.125 0.046875 0.0203125 0.09375 0.0482422 0.0203125
0.0625 0.0492188 0.0203125 0.03125 0.0498047 0.0203125 0 0.05
0.0203125 -0.03125 0.0498047 0.0203125 -0.0625 0.0492188 0.0203125 -0.09375
0.0482422 0.0203125 -0.125 0.046875 0.0203125 -0.15625 0.0451172 0.0203125
-0.1875 0.0429688 0.0203125 -0.21875 0.0404297 0.0203125 -0.25 0.0375
0.0203125 -0.28125 0.0341797 0.0203125 -0.3125 0.0304688 0.0203125 -0.34375
0.0263672 0.0203125 -0.375 0.021875 0.0203125 -0.40625 0.0169922 0.0203125
-0.4375 0.0117188 0.0203125 -0.46875 0.00605469 0.0203125 -0.5 0
0.0203125 -0.53125 0 0.0203125 -0.5625 0 0.0203125 -0.59375
0 0.0203125 -0.625 0 0.0203125 -0.65625 0 0.0203125
-0.6875 0 0.0203125 -0.71875 0 0.0203125 -0.75 0
[...]
<CellData>
<DataArray type="Float32" Name="vn" format="ascii">
1.95156e-18 -1.73472e-17 -2.77556e-17 -6.76542e-17 -6.245e-17 3.81639e-17 3.46945e-18 -2.42861e-17
4.16334e-17 -6.93889e-18 5.55112e-17 1.73472e-18 -2.86229e-17 1.60462e-17 6.50521e-18 -1.84314e-18
-1.17094e-17 -2.60209e-18 1.56125e-17 1.04083e-17 -8.67362e-18 -1.38778e-17 -2.25514e-17 -6.245e-17
-2.08167e-17 1.9082e-17 7.63278e-17 -6.245e-17 2.77556e-17 -2.08167e-17 1.73472e-18 3.59955e-17
-8.84709e-17 8.76035e-17 -1.38778e-17 3.1225e-17 -1.07553e-16 5.20417e-17 -4.16334e-17 -6.93889e-17
2.42861e-17 1.04083e-16 1.73472e-17 1.56125e-17 6.93889e-18 9.54098e-18 -1.95156e-17 0
1.69136e-17 2.1684e-17 3.55618e-17 -1.73472e-18 1.21431e-16 -2.60209e-17 6.76542e-17 1.04083e-17
1.00614e-16 -5.55112e-17 -6.93889e-18 0 -5.20417e-17 -1.47451e-16 6.41848e-17 -2.08167e-16
-1.75424e-16 -4.95264e-16 1.80411e-16 -1.30104e-16 1.11022e-16 -5.89806e-17 -1.59595e-16 1.249e-16
-3.46945e-17 9.36751e-17 3.46945e-17 -4.51028e-17 5.55112e-17 -4.33681e-17 -1.34441e-17 1.51788e-18
1.25767e-17 -1.04083e-17 1.47451e-17 -2.42861e-17 0 9.88792e-17 -7.97973e-17 2.77556e-17
1.73472e-17 -6.245e-17 9.36751e-17 -8.32667e-17 7.63278e-17 -3.98986e-17 -2.25514e-17 1.64365e-16
-2.77556e-16 -8.45678e-17 -2.01228e-16 1.82146e-16 2.35922e-16 2.28983e-16 2.18575e-16 -5.55112e-17
-6.93889e-18 -1.2837e-16 3.29597e-17 1.85615e-16 1.73472e-18 -2.34188e-17 -4.09828e-17 9.75782e-18
1.73472e-18 2.1684e-17 1.21431e-17 1.26635e-16 3.98986e-17 -2.60209e-17 1.07553e-16 -7.11237e-17
-6.76542e-17 2.01228e-16 -3.81639e-17 -9.88792e-17 7.11237e-17 -1.75207e-16 2.62811e-16 -3.54751e-16
-3.84539e-16 3.62774e-16 3.98986e-17 2.06432e-16 -1.14492e-16 1.07553e-16 4.51028e-17 1.00614e-16
8.32667e-17 9.54098e-17 1.38778e-16 -1.96024e-16 -7.71952e-17 -2.68882e-17 -1.25767e-17 -1.71304e-17
3.46945e-18 -8.67362e-18 -4.68375e-17 1.99493e-17 1.67401e-16 -7.80626e-17 1.38778e-17 1.11022e-16
-1.21431e-17 3.46945e-17 -8.84709e-17 1.07553e-16 -3.90313e-16 -4.68375e-17 4.05058e-16 2.26034e-15
9.46319e-16 1.95997e-16 3.1225e-17 -1.11196e-15 -1.40513e-16 5.20417e-17 -2.58474e-16 -8.1532e-17
1.09288e-16 1.94289e-16 4.16334e-17 -8.1532e-17 2.24213e-16 -1.11022e-16 4.60786e-18 2.42861e-17
-2.60209e-18 1.30104e-17 5.07407e-17 -1.68702e-16 5.89806e-17 1.12757e-17 -1.00614e-16 8.50015e-17
6.54858e-16 -2.09902e-16 1.28023e-15 1.28109e-15 -3.03577e-17 -1.51615e-15 -4.08094e-16 -1.5541e-15
1.36832e-15 1.04615e-15 5.91703e-16 2.48933e-16 -1.51398e-15 3.68629e-17 -8.1532e-17 2.68882e-17
3.25694e-16 2.26815e-16 -1.95156e-18 1.56667e-16 -6.34258e-17 6.29108e-17 -6.55942e-18 -1.36067e-17
7.48099e-18 -1.6263e-18 -2.1684e-18 1.0571e-17 -9.40545e-17 -7.91684e-16 8.1467e-16 -5.67797e-16
-5.39933e-16 -6.97142e-17 -3.85976e-16 1.71694e-15 -8.77336e-16 -5.95878e-16 -2.5804e-17 -1.83122e-16
-4.48773e-15 -3.12597e-15 2.86403e-15 -2.83801e-15 3.19883e-15 1.27676e-15 -3.1225e-16 -1.249e-16
-4.16334e-17 -1.70003e-16 -2.08167e-17 2.1684e-16 -1.50921e-16 9.06393e-17 -4.67725e-16 2.6151e-16
8.23994e-18 -4.68375e-17 1.46584e-16 -4.56232e-16 1.35308e-16 2.09902e-16 2.7929e-16 -2.11636e-16
7.45931e-16 -1.34961e-15 9.71445e-16 -2.87617e-15 2.498e-15 4.23273e-16 -4.78784e-16 9.4369e-16
-1.58207e-15 1.77636e-15 -1.02696e-15 3.30291e-15 -3.35842e-15 -1.41553e-15 -1.48492e-15 -2.63678e-16
1.38778e-17 -1.16573e-15 -1.16573e-15 1.24206e-15 -1.63064e-15 -1.93595e-15 -9.19403e-16 -7.80626e-18
2.60209e-18 -1.75554e-15 -2.4529e-15 -2.10248e-15 3.40006e-16 5.68989e-16 -1.40166e-15 -6.80012e-16
-8.04912e-16 -1.249e-16 -4.16334e-17 1.80411e-15 -2.498e-16 2.498e-16 -2.22045e-16 -2.55351e-15
4.54317e-05 8.01342e-05 0.000128854 0.000188471 0.000256373 0.00033079 0.000411582 0.000501264
0.000606442 0.000739961 0.000925743 0.00120533 0.0016761 0.00248459 0.00449252 0.00840863
0.0403268 0.104677 0.0813276 0.0344253 -0.0102059 -0.0423442 -0.0588017 -0.0603656
-0.0504818 -0.0342395 -0.0169891 -0.00286439 0.00615195 0.0102135 0.0107905 0.00958311
0.00775301 0.0057439 0.00356877 0.00120052 -0.00122335 -0.0034483 -0.00525767 -0.00658156
-0.0074967 -0.00817136 -0.00880772 -0.00961218 -0.0107341 -0.0121809 -0.0128396 -0.0116988
0.0225818 0.138921 0.127412 0.0645419 -0.00490384 -0.0540488 -0.0740556 -0.0703567
-0.0543468 -0.0360931 -0.0209487 -0.00984943 -0.00144193 0.00580773 0.0125025 0.0182516
0.0221958 0.0236026 0.022219 0.0183237 0.0125817 0.00583942 -0.00104452 -0.00730358
-0.0123178 -0.0156438 -0.0170366 -0.0164621 -0.0140953 -0.0102968 -0.0055666 -0.000482869
0.00436742 0.00845466 0.0113626 0.0128279 0.0127616 0.0112492 0.00853347 0.00498016
0.00103182 -0.00284497 -0.00621316 -0.00871324 -0.0101007 -0.0102685 -0.00925343 -0.00722542
-0.00446217 -0.00131287 0.00184476 0.00464875 0.00679339 0.00806164 0.00834602 0.00765619
0.00611294 0.00392967 0.0013842 -0.00121576 -0.00356896 -0.00541491 -0.00656202 -0.00690679
-0.00644217 -0.0052545 -0.0035099 -0.00143204 0.000725845 0.00271121 0.00430119 0.00532701
0.00569117 0.00537571 0.00444103 0.00301409 0.00127443 -0.000597096 -0.00234498 -0.00428186
4.52251e-05 7.97605e-05 0.000128233 0.000187517 0.000254992 0.000328855 0.000408905 0.000497533
0.000601097 0.000731962 0.000912871 0.00118329 0.00162985 0.00239437 0.00407933 0.00744089
0.0144697 0.013777 0.0171395 0.0223832 0.0190812 0.00341225 -0.019568 -0.0405534
-0.0514081 -0.0486165 -0.034099 -0.0137441 0.00542213 0.0181396 0.0226234 0.0204422
0.0149138 0.00912342 0.00468945 0.0017315 -0.000346471 -0.0020328 -0.00338137 -0.00417909
-0.00425818 -0.00364748 -0.00251784 -0.00105752 0.000616415 0.00245864 0.00487158 0.00847669
0.0214273 0.0394241 0.0564121 0.0589057 0.038754 0.000938245 -0.038798 -0.064821
-0.0701214 -0.0577203 -0.0363789 -0.0148943 0.00153088 0.0118173 0.0174385 0.0204018
0.0219509 0.0222982 0.0210597 0.0178662 0.0127697 0.00631827 -0.00061454 -0.00708902
-0.0123134 -0.0157573 -0.0171746 -0.0165743 -0.0141744 -0.0103566 -0.00562097 -0.000534919
0.00432379 0.00842826 0.0113588 0.0128463 0.0127967 0.0112935 0.00857988 0.00502341
0.00106852 -0.00281693 -0.00619511 -0.008706 -0.0101043 -0.0102822 -0.00927531 -0.00725265
-0.00449139 -0.00134061 0.0018216 0.00463249 0.00678533 0.00806199 0.00835402 0.00767032
0.00613115 0.00394964 0.00140358 -0.00119907 -0.00355662 -0.00540795 -0.00656079 -0.006911
-0.00645097 -0.00526663 -0.00352382 -0.0014461 0.000713233 0.00270138 0.00429507 0.00532501
0.0056932 0.00538121 0.00444912 0.00302367 0.00128429 -0.000588187 -0.00233809 -0.00427838
4.4758e-05 7.89161e-05 0.000126828 0.000185366 0.000251879 0.000324501 0.000402896 0.000489187
0.000589202 0.000714283 0.000884798 0.00113572 0.00153559 0.00220529 0.00345198 0.00590701
0.0096999 0.0143334 0.0151813 0.0120893 0.00713829 0.00137666 -0.00606822 -0.0161494
-0.0276278 -0.0366266 -0.0384792 -0.0306017 -0.014463 0.00468543 0.0202569 0.0275368
0.0257558 0.0178825 0.00847767 0.00114125 -0.00286598 -0.00428485 -0.00451086 -0.00442884
-0.00412535 -0.00330926 -0.0018178 0.000221615 0.00255281 0.00499696 0.00760419 0.0108584
0.0128815 0.0162556 0.0230999 0.0336221 0.0389388 0.0292594 0.00295225 -0.0310545
-0.0586493 -0.0689136 -0.0595617 -0.0366803 -0.0101802 0.0114701 0.0242774 0.0287031
0.0276527 0.0241803 0.0201212 0.0159286 0.0112861 0.00586373 -0.000225031 -0.00637904
-0.0117498 -0.0155553 -0.0173063 -0.0168863 -0.0145107 -0.0106252 -0.0057988 -0.000639589
0.00426689 0.00840391 0.0113638 0.0128824 0.0128632 0.0113839 0.00868272 0.00512541
0.00115791 -0.00274855 -0.00615236 -0.00869022 -0.0101144 -0.0103149 -0.00932587 -0.00731471
-0.00455761 -0.00140346 0.00176892 0.00459518 0.00676645 0.00806226 0.00837192 0.00770247
0.0061728 0.00399538 0.00144796 -0.00116085 -0.00352828 -0.00539183 -0.00655776 -0.00692047
-0.00647106 -0.00529442 -0.00355571 -0.00147824 0.000684454 0.00267895 0.00428102 0.00532028
0.00569764 0.00539366 0.0044676 0.00304565 0.00130692 -0.000567774 -0.00232237 -0.00427047
4.39665e-05 7.7486e-05 0.000124453 0.00018173 0.00024663 0.000317184 0.000392842 0.000475308
0.000569605 0.000685524 0.000840116 0.00106175 0.00139951 0.00193702 0.00281844 0.00425052
0.00596028 0.00693069 0.00785944 0.00845305 0.00742877 0.00379571 -0.00224428 -0.00958953
-0.0170199 -0.023485 -0.0277382 -0.0280295 -0.0226328 -0.0111833 0.00413923 0.0187745
0.0276565 0.027843 0.0201654 0.00869946 -0.00163152 -0.00766806 -0.00913604 -0.00781976
-0.00577628 -0.00404362 -0.00254976 -0.000826355 0.00133589 0.00378003 0.00628854 0.00893956
0.0126645 0.0162837 0.0189981 0.020997 0.0226655 0.0217982 0.0142004 -0.00265308
-0.0261035 -0.048247 -0.059804 -0.0552925 -0.036024 -0.00918793 0.0160214 0.0326599
0.0383674 0.0350513 0.0267793 0.0174247 0.00925631 0.0028014 -0.0024314 -0.00705396
-0.0112362 -0.0146308 -0.01664 -0.016771 -0.0148781 -0.0112204 -0.0063656 -0.001028
0.00408623 0.00838414 0.0114381 0.0130008 0.0130018 0.0115357 0.00884436 0.0052887
0.00130879 -0.0026261 -0.00607147 -0.00865783 -0.0101304 -0.0103731 -0.00941579 -0.00742371
-0.00467247 -0.00151163 0.00167832 0.0045306 0.00673314 0.00806176 0.00840197 0.00775739
0.00624448 0.00407443 0.00152502 -0.00109415 -0.00347849 -0.00536322 -0.006552 -0.00693662
-0.00650579 -0.00534252 -0.00361085 -0.00153379 0.000634644 0.00263993 0.00425632 0.00531166
0.00570496 0.00541502 0.00449959 0.00308376 0.00134616 -0.000532414 -0.00229514 -0.00425668
4.27845e-05 7.53522e-05 0.000120913 0.000176326 0.000238853 0.000306393 0.000378113 0.000455169
0.000541551 0.000645124 0.000779139 0.000964499 0.0012334 0.0016339 0.00223118 0.00309575
0.00408838 0.00492372 0.00527501 0.00491292 0.00388233 0.00217446 -0.000483715 -0.00439605
-0.00944121 -0.0148476 -0.0193787 -0.0217153 -0.0207475 -0.0157646 -0.00676497 0.00504539
0.0169499 0.025235 0.0267176 0.0205827 0.00922922 -0.00273965 -0.0109307 -0.0133916
-0.0111548 -0.00690536 -0.00298355 -0.000226973 0.0018011 0.00383219 0.00617097 0.00868816
0.0108469 0.0126256 0.0142892 0.0156115 0.0159541 0.0146663 0.0109026 0.00347835
-0.00841301 -0.0237582 -0.0388011 -0.0478847 -0.0460464 -0.0318944 -0.00887909 0.0159578
0.0350732 0.0435943 0.0409241 0.0302016 0.0162658 0.00340505 -0.00601811 -0.0116899
-0.0145567 -0.015798 -0.0161271 -0.0156334 -0.0140413 -0.0111049 -0.00688849 -0.00183158
0.00337295 0.00798137 0.0113819 0.0132013 0.0133293 0.011885 0.00915853 0.00555088
0.00152036 -0.00246332 -0.00596198 -0.00860964 -0.0101486 -0.010455 -0.00954972 -0.00759129
-0.00485201 -0.00168175 0.001536 0.00442957 0.00668107 0.00806027 0.00844709 0.00784056
0.0063538 0.00419606 0.00164467 -0.000989705 -0.00339998 -0.00531767 -0.00654215 -0.00696086
-0.0065588 -0.00541627 -0.00369573 -0.00161974 0.00055712 0.00257882 0.00421734 0.00529767
0.00571582 0.00544771 0.00454873 0.00314241 0.00140667 -0.0004777 -0.00225277 -0.00423487
4.115e-05 7.24053e-05 0.000116034 0.000168901 0.000228215 0.000291728 0.000358278 0.000428394
0.000504911 0.000593635 0.000704074 0.000850279 0.0010516 0.00133252 0.00171846 0.0022238
0.00272881 0.00307165 0.00326388 0.0031839 0.00262919 0.00142378 -0.000471775 -0.00297202
-0.00594668 -0.00922196 -0.012459 -0.0150339 -0.01608 -0.0147259 -0.0104233 -0.0032427
0.00590424 0.0151678 0.0219693 0.0237442 0.0191605 0.00920681 -0.00274007 -0.0122961
-0.0162712 -0.0142658 -0.00853569 -0.00227971 0.00231858 0.00492335 0.00645629 0.00791914
0.00964155 0.0111558 0.0121229 0.0123976 0.0119151 0.010455 0.00764153 0.00307638
-0.00352063 -0.012096 -0.0218685 -0.0309273 -0.0362938 -0.0348249 -0.0247703 -0.00717171
0.0138587 0.0323944 0.0429935 0.0428942 0.0329963 0.017206 0.000601016 -0.0125895
-0.0202563 -0.022531 -0.0209868 -0.017522 -0.0135139 -0.00953393 -0.00555857 -0.00139948
0.00293874 0.00713069 0.0106274 0.0128682 0.0134802 0.012385 0.00979701 0.00614591
0.00196948 -0.00218488 -0.00583196 -0.00859247 -0.0102158 -0.0105897 -0.00974004 -0.00782246
-0.00510251 -0.00192479 0.00132746 0.00427754 0.00659913 0.00805249 0.00850869 0.00795941
0.00651234 0.00437357 0.00181974 -0.000836563 -0.00328422 -0.00524927 -0.00652507 -0.00699322
-0.00663358 -0.00552233 -0.00381919 -0.00174563 0.000443124 0.00248871 0.0041595 0.00527621
0.00573041 0.00549403 0.00461919 0.0032271 0.00149456 -0.000397788 -0.00219045 -0.00420206
3.90141e-05 6.85605e-05 0.000109686 0.000159279 0.000214511 0.000272989 0.000333223 0.0003951
0.000460324 0.000532764 0.000618691 0.000726804 0.000867805 0.00105302 0.00129102 0.00158186
0.0018498 0.00200876 0.00203648 0.00186583 0.00144225 0.000707222 -0.000409878 -0.00195784
-0.00390494 -0.00610536 -0.00831127 -0.0101994 -0.0113766 -0.011381 -0.00974079 -0.00612995
-0.000589765 0.00627132 0.0131938 0.0183872 0.0199466 0.0165891 0.0085045 -0.00218643
-0.0119167 -0.0171738 -0.0162854 -0.0103109 -0.00232942 0.00443496 0.00832541 0.00967063
0.00999485 0.0101481 0.0101564 0.00990997 0.00916351 0.00769952 0.00536936 0.00207
-0.00225023 -0.00752416 -0.0134556 -0.0193921 -0.0242217 -0.0264033 -0.0242769 -0.0167151
-0.00392737 0.0120132 0.0273684 0.0378025 0.0399707 0.0329146 0.0185598 0.00103449
-0.0148843 -0.0254728 -0.0291626 -0.0266527 -0.0201493 -0.0122245 -0.00485444 0.00100738
0.00530048 0.00840356 0.0106706 0.0121786 0.0127393 0.0120854 0.0100851 0.00687061
0.00284022 -0.00143949 -0.00537108 -0.00844796 -0.01033 -0.0108692 -0.0100984 -0.00819944
-0.0054633 -0.00224927 0.00105551 0.0040753 0.00648297 0.00803267 0.00858456 0.00811784
0.00672981 0.00462064 0.00206594 -0.000618777 -0.00311685 -0.00514721 -0.00649514 -0.00703389
-0.00673544 -0.00566955 -0.00399185 -0.00192244 0.000282209 0.00236038 0.00407561 0.00524291
0.00574785 0.00555656 0.00471631 0.00334488 0.0016175 -0.000285246 -0.00210169 -0.00415365
3.63523e-05 6.37781e-05 0.000101815 0.000147407 0.000197723 0.00025026 0.000303242 0.000355986
0.000409203 0.000465155 0.000527625 0.000601616 0.000692642 0.000805407 0.000941505 0.00109655
0.00121981 0.00126421 0.0012285 0.00107287 0.000752076 0.000225891 -0.00052979 -0.00151923
-0.0027259 -0.00410187 -0.00554587 -0.00688515 -0.00787831 -0.00824144 -0.00768692 -0.00597186
-0.00296866 0.00123238 0.00620837 0.0111323 0.0148173 0.0159403 0.0134743 0.00725841
-0.00152965 -0.0103772 -0.0162008 -0.0167171 -0.0117074 -0.00328692 0.00517108 0.0108432
0.0129528 0.0127244 0.0111589 0.0091046 0.00706701 0.00514003 0.00313382 0.000781124
-0.00209686 -0.00550901 -0.00927679 -0.0130414 -0.0162727 -0.0182841 -0.0182822 -0.0154988
-0.00944202 -0.000245498 0.0110117 0.0222227 0.0305962 0.0334458 0.0291931 0.0181609
0.00273949 -0.0132446 -0.0257612 -0.0319124 -0.0308172 -0.0237019 -0.0132243 -0.0023894
0.00645332 0.0121548 0.0147393 0.0149604 0.0137368 0.0117394 0.00926022 0.00632834
0.00293382 -0.000787997 -0.00449805 -0.00772252 -0.00999116 -0.0109719 -0.0105499 -0.00883734
-0.00612855 -0.00282839 0.000620787 0.00379991 0.00635752 0.00803902 0.00870356 0.00833001
0.00701238 0.00494486 0.0023972 -0.000317352 -0.00287869 -0.00499671 -0.00644416 -0.00708105
-0.00686785 -0.00586581 -0.00422541 -0.00216472 5.88236e-05 0.00217969 0.00395507 0.00519178
0.00576658 0.00563752 0.00484542 0.00350375 0.00178559 -0.000129115 -0.00197651 -0.00408304
3.3176e-05 5.80834e-05 9.24772e-05 0.000133406 0.000178083 0.000223969 0.000269084 0.000312312
0.000353601 0.000394019 0.000435633 0.000481146 0.000533253 0.000593671 0.000661741 0.000732968
0.000774897 0.000760638 0.000690503 0.000543333 0.000297349 -6.83066e-05 -0.000570625 -0.00121662
-0.00199566 -0.00287375 -0.00379081 -0.00465847 -0.00535669 -0.00573343 -0.00561488 -0.00483134
-0.00325683 -0.000858192 0.00225022 0.00575298 0.00910014 0.0115284 0.0121766 0.0103228
0.00572752 -0.00101543 -0.00832012 -0.013884 -0.0154944 -0.0121115 -0.00462319 0.00433269
0.0112754 0.0148784 0.015306 0.0131222 0.00940289 0.00528202 0.00157172 -0.00140302
-0.00373629 -0.00572675 -0.00764212 -0.00955928 -0.0113156 -0.0125523 -0.0128086 -0.0116277
-0.0086628 -0.00378727 0.00278379 0.0103765 0.0178045 0.0234651 0.0256506 0.0230581
0.0153533 0.00355534 -0.00998915 -0.0221357 -0.0298526 -0.0311928 -0.0259441 -0.0156858
-0.00322546 0.00835053 0.0166294 0.0204728 0.0200912 0.0166541 0.0116744 0.00645092
0.00176632 -0.00211307 -0.00523137 -0.00768826 -0.00947025 -0.0104249 -0.0103514 -0.00913281
-0.0068344 -0.00372602 -0.000231136 0.00316669 0.00602075 0.0079934 0.00889318 0.00868042
0.00745185 0.00541342 0.00284757 7.76159e-05 -0.0025687 -0.00479433 -0.00636363 -0.00712564
-0.00702759 -0.00611731 -0.00453448 -0.00249154 -0.000246481 0.00192918 0.00378311 0.0051113
0.00577974 0.00573648 0.00501338 0.00371654 0.00201422 8.46717e-05 -0.00180477 -0.00398436
2.95419e-05 5.15829e-05 8.18625e-05 0.000117591 0.0001561 0.000194896 0.000231923 0.000265797
0.000295962 0.000322705 0.000347023 0.000370318 0.000393897 0.000418314 0.000442517 0.00046307
0.000459908 0.000418292 0.000339693 0.000212272 2.3629e-05 -0.000237122 -0.000577262 -0.000998439
-0.00149429 -0.00204721 -0.00262469 -0.00317657 -0.00363462 -0.00391477 -0.0039219 -0.00355821
-0.00273774 -0.00140882 0.000416727 0.00263177 0.00500667 0.00717675 0.00865928 0.00891834
0.00749303 0.00418833 -0.000706832 -0.00626365 -0.0109602 -0.0130568 -0.0112892 -0.00561117
0.00195028 0.0089667 0.0140741 0.0161489 0.0149271 0.0110154 0.00561338 7.15477e-05
-0.00453371 -0.00765457 -0.00929122 -0.00981369 -0.00969413 -0.0092711 -0.00862861 -0.00761006
-0.00593239 -0.0033397 0.000259276 0.00470162 0.00953597 0.0140411 0.0173008 0.0183481
0.0163885 0.0110789 0.00279027 -0.00726115 -0.0171265 -0.0245258 -0.0274666 -0.0248898
-0.0171 -0.00578511 0.00642202 0.0167072 0.0228941 0.0240246 0.0205082 0.013821
0.00591321 -0.00142639 -0.00701882 -0.0104357 -0.0118554 -0.011764 -0.01066 -0.00888176
-0.00658985 -0.00386118 -0.000811028 0.00233066 0.00522297 0.00748575 0.00879856 0.00898277
0.00803936 0.00613845 0.00357436 0.000706457 -0.00209755 -0.00450735 -0.00626298 -0.00719647
-0.00724317 -0.00644278 -0.00492973 -0.00291346 -0.000651097 0.00158394 0.0035333 0.00498178
0.00577963 0.00585713 0.00523016 0.00399395 0.00231268 0.000365903 -0.00157285 -0.00383898
2.55564e-05 4.44699e-05 7.02986e-05 0.000100479 0.000132541 0.000164136 0.000193259 0.000218436
0.000238847 0.000254336 0.000265308 0.000272495 0.0002766 0.000277865 0.000275534 0.000267415
0.000241732 0.000190747 0.000115882 1.09638e-05 -0.000130444 -0.000313922 -0.000543003 -0.000817763
-0.00113331 -0.00147833 -0.00183387 -0.00217222 -0.00245625 -0.00263971 -0.00266935 -0.00248932
-0.00204821 -0.00130878 -0.000260652 0.00106442 0.00257662 0.00411524 0.00544504 0.0062693
0.00626801 0.00516814 0.00284621 -0.000549763 -0.00449553 -0.00806853 -0.0100908 -0.00948096
-0.00600501 -0.00065908 0.00543211 0.0108434 0.0142384 0.014749 0.0122346 0.00732175
0.00120406 -0.00472592 -0.00928126 -0.0117814 -0.0121558 -0.0108381 -0.00851719 -0.00585691
-0.00329 -0.000949028 0.00126639 0.00353717 0.00596013 0.00843436 0.0106317 0.0120512
0.0121349 0.010417 0.00667868 0.00108346 -0.0057402 -0.0127086 -0.0184228 -0.0214498
-0.0207026 -0.0158195 -0.00740733 0.00297301 0.0131246 0.0207715 0.0241901 0.0227009
0.0168494 0.00820986 -0.00111386 -0.00910646 -0.014365 -0.0163647 -0.0154171 -0.0123855
-0.00830588 -0.00406222 -0.000217729 0.00298243 0.00549278 0.00732208 0.00843712 0.00874922
0.00816921 0.00668695 0.00442818 0.00166113 -0.00124752 -0.00390621 -0.0059735 -0.00721226
-0.00751442 -0.00689928 -0.00549493 -0.00351162 -0.00121238 0.00111769 0.00320292 0.00480784
0.00576351 0.00598513 0.00547802 0.0043295 0.00269654 0.000751335 -0.00123555 -0.00361147
2.13709e-05 3.70163e-05 5.82352e-05 8.27542e-05 0.000108375 0.000132991 0.000154766 0.000172285
0.00018466 0.000191541 0.000193047 0.000189599 0.000181681 0.000169545 0.00015288 0.00013054
9.61299e-05 4.59862e-05 -1.88063e-05 -0.00010136 -0.000204919 -0.000332129 -0.000484359 -0.000660982
-0.000858606 -0.00107028 -0.0012848 -0.00148617 -0.0016535 -0.00176138 -0.00178083 -0.00168123
-0.00143347 -0.00101444 -0.000413101 0.000362397 0.00127695 0.00226128 0.0032072 0.00396809
0.00436847 0.00422637 0.00339155 0.00179953 -0.000464501 -0.0031066 -0.00559798 -0.00721993