<VTKFile type="PolyData">
<PolyData>
<Piece NumberOfPoints="3555" NumberOfVerts="0" NumberOfLines="0" NumberOfStrips="0" NumberOfPolys="3360">
<Points>
<DataArray type="Float32" NumberOfComponents="3" format="ascii">
0.5 0 -0.0625 0.46875 0 -0.0625 0.4375 0
-0.0625 0.40625 0 -0.0625 0.375 0 -0.0625 0.34375
0 -0.0625 0.3125 0 -0.0625 0.28125 0 -0.0625
0.25 0 -0.0625 0.21875 0 -0.0625 0.1875 0
-0.0625 0.15625 0 -0.0625 0.125 0 -0.0625 0.09375
0 -0.0625 0.0625 0 -0.0625 0.03125 0 -0.0625
0 0 -0.0625 -0.03125 0 -0.0625 -0.0625 0
-0.0625 -0.09375 0 -0.0625 -0.125 0 -0.0625 -0.15625
0 -0.0625 -0.1875 0 -0.0625 -0.21875 0 -0.0625
-0.25 0 -0.0625 -0.28125 0 -0.0625 -0.3125 0
-0.0625 -0.34375 0 -0.0625 -0.375 0 -0.0625 -0.40625
0 -0.0625 -0.4375 0 -0.0625 -0.46875 0 -0.0625
-0.5 0 -0.0625 0.5 0 -0.0546875 0.46875 0.00141907
-0.0546875 0.4375 0.00274658 -0.0546875 0.40625 0.00398254 -0.0546875 0.375
0.00512695 -0.0546875 0.34375 0.00617981 -0.0546875 0.3125 0.00714111 -0.0546875
0.28125 0.00801086 -0.0546875 0.25 0.00878906 -0.0546875 0.21875 0.00947571
-0.0546875 0.1875 0.0100708 -0.0546875 0.15625 0.0105743 -0.0546875 0.125
0.0109863 -0.0546875 0.09375 0.0113068 -0.0546875 0.0625 0.0115356 -0.0546875
0.03125 0.011673 -0.0546875 0 0.0117188 -0.0546875 -0.03125 0.011673
-0.0546875 -0.0625 0.0115356 -0.0546875 -0.09375 0.0113068 -0.0546875 -0.125
0.0109863 -0.0546875 -0.15625 0.0105743 -0.0546875 -0.1875 0.0100708 -0.0546875
-0.21875 0.00947571 -0.0546875 -0.25 0.00878906 -0.0546875 -0.28125 0.00801086
-0.0546875 -0.3125 0.00714111 -0.0546875 -0.34375 0.00617981 -0.0546875 -0.375
0.00512695 -0.0546875 -0.40625 0.00398254 -0.0546875 -0.4375 0.00274658 -0.0546875
-0.46875 0.00141907 -0.0546875 -0.5 0 -0.0546875 0.5 0
-0.046875 0.46875 0.00264893 -0.046875 0.4375 0.00512695 -0.046875 0.40625
0.00743408 -0.046875 0.375 0.00957031 -0.046875 0.34375 0.0115356 -0.046875
0.3125 0.0133301 -0.046875 0.28125 0.0149536 -0.046875 0.25 0.0164063
-0.046875 0.21875 0.017688 -0.046875 0.1875 0.0187988 -0.046875 0.15625
0.0197388 -0.046875 0.125 0.0205078 -0.046875 0.09375 0.021106 -0.046875
0.0625 0.0215332 -0.046875 0.03125 0.0217896 -0.046875 0 0.021875
-0.046875 -0.03125 0.0217896 -0.046875 -0.0625 0.0215332 -0.046875 -0.09375
0.021106 -0.046875 -0.125 0.0205078 -0.046875 -0.15625 0.0197388 -0.046875
-0.1875 0.0187988 -0.046875 -0.21875 0.017688 -0.046875 -0.25 0.0164063
-0.046875 -0.28125 0.0149536 -0.046875 -0.3125 0.0133301 -0.046875 -0.34375
0.0115356 -0.046875 -0.375 0.00957031 -0.046875 -0.40625 0.00743408 -0.046875
-0.4375 0.00512695 -0.046875 -0.46875 0.00264893 -0.046875 -0.5 0
-0.046875 0.5 0 -0.0390625 0.46875 0.00368958 -0.0390625 0.4375
0.00714111 -0.0390625 0.40625 0.0103546 -0.0390625 0.375 0.0133301 -0.0390625
0.34375 0.0160675 -0.0390625 0.3125 0.0185669 -0.0390625 0.28125 0.0208282
-0.0390625 0.25 0.0228516 -0.0390625 0.21875 0.0246368 -0.0390625 0.1875
0.0261841 -0.0390625 0.15625 0.0274933 -0.0390625 0.125 0.0285645 -0.0390625
0.09375 0.0293976 -0.0390625 0.0625 0.0299927 -0.0390625 0.03125 0.0303497
-0.0390625 0 0.0304688 -0.0390625 -0.03125 0.0303497 -0.0390625 -0.0625
0.0299927 -0.0390625 -0.09375 0.0293976 -0.0390625 -0.125 0.0285645 -0.0390625
-0.15625 0.0274933 -0.0390625 -0.1875 0.0261841 -0.0390625 -0.21875 0.0246368
-0.0390625 -0.25 0.0228516 -0.0390625 -0.28125 0.0208282 -0.0390625 -0.3125
0.0185669 -0.0390625 -0.34375 0.0160675 -0.0390625 -0.375 0.0133301 -0.0390625
-0.40625 0.0103546 -0.0390625 -0.4375 0.00714111 -0.0390625 -0.46875 0.00368958
-0.0390625 -0.5 0 -0.0390625 0.5 0 -0.03125 0.46875
0.00454102 -0.03125 0.4375 0.00878906 -0.03125 0.40625 0.0127441 -0.03125
0.375 0.0164063 -0.03125 0.34375 0.0197754 -0.03125 0.3125 0.0228516
-0.03125 0.28125 0.0256348 -0.03125 0.25 0.028125 -0.03125 0.21875
0.0303223 -0.03125 0.1875 0.0322266 -0.03125 0.15625 0.0338379 -0.03125
0.125 0.0351563 -0.03125 0.09375 0.0361816 -0.03125 0.0625 0.0369141
-0.03125 0.03125 0.0373535 -0.03125 0 0.0375 -0.03125 -0.03125
0.0373535 -0.03125 -0.0625 0.0369141 -0.03125 -0.09375 0.0361816 -0.03125
-0.125 0.0351563 -0.03125 -0.15625 0.0338379 -0.03125 -0.1875 0.0322266
-0.03125 -0.21875 0.0303223 -0.03125 -0.25 0.028125 -0.03125 -0.28125
0.0256348 -0.03125 -0.3125 0.0228516 -0.03125 -0.34375 0.0197754 -0.03125
-0.375 0.0164063 -0.03125 -0.40625 0.0127441 -0.03125 -0.4375 0.00878906
-0.03125 -0.46875 0.00454102 -0.03125 -0.5 0 -0.03125 0.5
0 -0.0234375 0.46875 0.00520325 -0.0234375 0.4375 0.0100708 -0.0234375
0.40625 0.0146027 -0.0234375 0.375 0.0187988 -0.0234375 0.34375 0.0226593
-0.0234375 0.3125 0.0261841 -0.0234375 0.28125 0.0293732 -0.0234375 0.25
0.0322266 -0.0234375 0.21875 0.0347443 -0.0234375 0.1875 0.0369263 -0.0234375
0.15625 0.0387726 -0.0234375 0.125 0.0402832 -0.0234375 0.09375 0.0414581
-0.0234375 0.0625 0.0422974 -0.0234375 0.03125 0.0428009 -0.0234375 0
0.0429688 -0.0234375 -0.03125 0.0428009 -0.0234375 -0.0625 0.0422974 -0.0234375
-0.09375 0.0414581 -0.0234375 -0.125 0.0402832 -0.0234375 -0.15625 0.0387726
-0.0234375 -0.1875 0.0369263 -0.0234375 -0.21875 0.0347443 -0.0234375 -0.25
0.0322266 -0.0234375 -0.28125 0.0293732 -0.0234375 -0.3125 0.0261841 -0.0234375
-0.34375 0.0226593 -0.0234375 -0.375 0.0187988 -0.0234375 -0.40625 0.0146027
-0.0234375 -0.4375 0.0100708 -0.0234375 -0.46875 0.00520325 -0.0234375 -0.5
0 -0.0234375 0.5 0 -0.015625 0.46875 0.00567627 -0.015625
0.4375 0.0109863 -0.015625 0.40625 0.0159302 -0.015625 0.375 0.0205078
-0.015625 0.34375 0.0247192 -0.015625 0.3125 0.0285645 -0.015625 0.28125
0.0320435 -0.015625 0.25 0.0351563 -0.015625 0.21875 0.0379028 -0.015625
0.1875 0.0402832 -0.015625 0.15625 0.0422974 -0.015625 0.125 0.0439453
-0.015625 0.09375 0.0452271 -0.015625 0.0625 0.0461426 -0.015625 0.03125
0.0466919 -0.015625 0 0.046875 -0.015625 -0.03125 0.0466919 -0.015625
-0.0625 0.0461426 -0.015625 -0.09375 0.0452271 -0.015625 -0.125 0.0439453
-0.015625 -0.15625 0.0422974 -0.015625 -0.1875 0.0402832 -0.015625 -0.21875
0.0379028 -0.015625 -0.25 0.0351563 -0.015625 -0.28125 0.0320435 -0.015625
-0.3125 0.0285645 -0.015625 -0.34375 0.0247192 -0.015625 -0.375 0.0205078
-0.015625 -0.40625 0.0159302 -0.015625 -0.4375 0.0109863 -0.015625 -0.46875
0.00567627 -0.015625 -0.5 0 -0.015625 0.5 0 -0.0078125
0.46875 0.00596008 -0.0078125 0.4375 0.0115356 -0.0078125 0.40625 0.0167267
-0.0078125 0.375 0.0215332 -0.0078125 0.34375 0.0259552 -0.0078125 0.3125
0.0299927 -0.0078125 0.28125 0.0336456 -0.0078125 0.25 0.0369141 -0.0078125
0.21875 0.039798 -0.0078125 0.1875 0.0422974 -0.0078125 0.15625 0.0444122
-0.0078125 0.125 0.0461426 -0.0078125 0.09375 0.0474884 -0.0078125 0.0625
0.0484497 -0.0078125 0.03125 0.0490265 -0.0078125 0 0.0492188 -0.0078125
-0.03125 0.0490265 -0.0078125 -0.0625 0.0484497 -0.0078125 -0.09375 0.0474884
-0.0078125 -0.125 0.0461426 -0.0078125 -0.15625 0.0444122 -0.0078125 -0.1875
0.0422974 -0.0078125 -0.21875 0.039798 -0.0078125 -0.25 0.0369141 -0.0078125
-0.28125 0.0336456 -0.0078125 -0.3125 0.0299927 -0.0078125 -0.34375 0.0259552
-0.0078125 -0.375 0.0215332 -0.0078125 -0.40625 0.0167267 -0.0078125 -0.4375
0.0115356 -0.0078125 -0.46875 0.00596008 -0.0078125 -0.5 0 -0.0078125
0.5 0 0 0.46875 0.00605469 0 0.4375 0.0117188
0 0.40625 0.0169922 0 0.375 0.021875 0 0.34375
0.0263672 0 0.3125 0.0304688 0 0.28125 0.0341797 0
0.25 0.0375 0 0.21875 0.0404297 0 0.1875 0.0429688
0 0.15625 0.0451172 0 0.125 0.046875 0 0.09375
0.0482422 0 0.0625 0.0492188 0 0.03125 0.0498047 0
0 0.05 0 -0.03125 0.0498047 0 -0.0625 0.0492188
0 -0.09375 0.0482422 0 -0.125 0.046875 0 -0.15625
0.0451172 0 -0.1875 0.0429688 0 -0.21875 0.0404297 0
-0.25 0.0375 0 -0.28125 0.0341797 0 -0.3125 0.0304688
0 -0.34375 0.0263672 0 -0.375 0.021875 0 -0.40625
0.0169922 0 -0.4375 0.0117188 0 -0.46875 0.00605469 0
-0.5 0 0 0.5 0 0.0203125 0.46875 0.00605469
0.0203125 0.4375 0.0117188 0.0203125 0.40625 0.0169922 0.0203125 0.375
0.021875 0.0203125 0.34375 0.0263672 0.0203125 0.3125 0.0304688 0.0203125
0.28125 0.0341797 0.0203125 0.25 0.0375 0.0203125 0.21875 0.0404297
0.0203125 0.1875 0.0429688 0.0203125 0.15625 0.0451172 0.0203125 0.125
0.046875 0.0203125 0.09375 0.0482422 0.0203125 0.0625 0.0492188 0.0203125
0.03125 0.0498047 0.0203125 0 0.05 0.0203125 -0.03125 0.0498047
0.0203125 -0.0625 0.0492188 0.0203125 -0.09375 0.0482422 0.0203125 -0.125
0.046875 0.0203125 -0.15625 0.0451172 0.0203125 -0.1875 0.0429688 0.0203125
-0.21875 0.0404297 0.0203125 -0.25 0.0375 0.0203125 -0.28125 0.0341797
0.0203125 -0.3125 0.0304688 0.0203125 -0.34375 0.0263672 0.0203125 -0.375
0.021875 0.0203125 -0.40625 0.0169922 0.0203125 -0.4375 0.0117188 0.0203125
-0.46875 0.00605469 0.0203125 -0.5 0 0.0203125 1 0
0.0203125 0.96875 0 0.0203125 0.9375 0 0.0203125 0.90625
0 0.0203125 0.875 0 0.0203125 0.84375 0 0.0203125
0.8125 0 0.0203125 0.78125 0 0.0203125 0.75 0
0.0203125 0.71875 0 0.0203125 0.6875 0 0.0203125 0.65625
0 0.0203125 0.625 0 0.0203125 0.59375 0 0.0203125
0.5625 0 0.0203125 0.53125 0 0.0203125 0.5 0
0.0203125 0.46875 0.00605469 0.0203125 0.4375 0.0117188 0.0203125 0.40625
0.0169922 0.0203125 0.375 0.021875 0.0203125 0.34375 0.0263672 0.0203125
0.3125 0.0304688 0.0203125 0.28125 0.0341797 0.0203125 0.25 0.0375
0.0203125 0.21875 0.0404297 0.0203125 0.1875 0.0429688 0.0203125 0.15625
0.0451172 0.0203125 0.125 0.046875 0.0203125 0.09375 0.0482422 0.0203125
0.0625 0.0492188 0.0203125 0.03125 0.0498047 0.0203125 0 0.05
0.0203125 -0.03125 0.0498047 0.0203125 -0.0625 0.0492188 0.0203125 -0.09375
0.0482422 0.0203125 -0.125 0.046875 0.0203125 -0.15625 0.0451172 0.0203125
-0.1875 0.0429688 0.0203125 -0.21875 0.0404297 0.0203125 -0.25 0.0375
0.0203125 -0.28125 0.0341797 0.0203125 -0.3125 0.0304688 0.0203125 -0.34375
0.0263672 0.0203125 -0.375 0.021875 0.0203125 -0.40625 0.0169922 0.0203125
-0.4375 0.0117188 0.0203125 -0.46875 0.00605469 0.0203125 -0.5 0
0.0203125 -0.53125 0 0.0203125 -0.5625 0 0.0203125 -0.59375
0 0.0203125 -0.625 0 0.0203125 -0.65625 0 0.0203125
-0.6875 0 0.0203125 -0.71875 0 0.0203125 -0.75 0
[...]
<CellData>
<DataArray type="Float32" Name="zeta" format="ascii">
0 0 0 0 0 0 0 0
0 0 0 0 0 0 0 0
0 0 0 0 0 0 0 0
0 0 0 0 0 0 0 0
0 0 0 0 0 0 0 0
0 0 0 0 0 0 0 0
0 0 0 0 0 0 0 0
0 0 0 0 0 0 0 0
0 0 0 0 0 0 0 0
0 0 0 0 0 0 0 0
0 0 0 0 0 0 0 0
0 0 0 0 0 0 0 0
0 0 0 0 0 0 0 0
0 0 0 0 0 0 0 0
0 0 0 0 0 0 0 0
0 0 0 0 0 0 0 0
0 0 0 0 0 0 0 0
0 0 0 0 0 0 0 0
0 0 0 0 0 0 0 0
0 0 0 0 0 0 0 0
0 0 0 0 0 0 0 0
0 0 0 0 0 0 0 0
0 0 0 0 0 0 0 0
0 0 0 0 0 0 0 0
0 0 0 0 0 0 0 0
0 0 0 0 0 0 0 0
0 0 0 0 0 0 0 0
0 0 0 0 0 0 0 0
0 0 0 0 0 0 0 0
0 0 0 0 0 0 0 0
0 0 0 0 0 0 0 0
0 0 0 0 0 0 0 0
0 0 0 0 0 0 0 0
0 0 0 0 0 0 0 0
0 0 0 0 0 0 0 0
0 0 0 0 0 0 0 0
5.31599e-05 5.63879e-05 6.18781e-05 7.02504e-05 8.19852e-05 9.74478e-05 0.000116956 0.000140897
0.000169905 0.000205155 0.000248718 0.000304823 0.000379198 0.000494844 0.000642276 0.00115482
0.00133229 0.00359589 0.00650446 0.007393 0.00669655 0.00497794 0.00272703 0.000375834
-0.00171298 -0.00329334 -0.0042677 -0.00467471 -0.00463839 -0.00430701 -0.00380881 -0.00323669
-0.00265564 -0.00211695 -0.00166531 -0.00133557 -0.00114483 -0.001088 -0.00114026 -0.00126438
-0.00141863 -0.00156269 -0.00166162 -0.00168853 -0.00162787 -0.00146763 -0.00124674 -0.000604899
-0.00107893 0.0028823 0.00930782 0.0125846 0.0124809 0.00994463 0.00633301 0.00275809
-0.000167436 -0.00227037 -0.00362096 -0.00435302 -0.00456985 -0.00433228 -0.00368951 -0.00271302
-0.00151146 -0.00022354 0.00100268 0.00203305 0.00276539 0.00313959 0.00314024 0.00279384
0.00216229 0.00133398 0.000412845 -0.000493319 -0.00128467 -0.00187974 -0.00222342 -0.0022917
-0.00209261 -0.00166363 -0.00106593 -0.000376336 0.000322061 0.000949464 0.00143811 0.00173929
0.00182785 0.001704 0.00139202 0.000936442 0.000396084 -0.000163321 -0.00067689 -0.00108795
-0.0013541 -0.00145146 -0.00137651 -0.00114562 -0.000792298 -0.000362632 9.05559e-05 0.000514024
0.000860222 0.0010925 0.00118885 0.00114381 0.000968405 0.000688191 0.000339738 -3.4029e-05
-0.000389022 -0.00068511 -0.000890573 -0.000985424 -0.000963244 -0.000831382 -0.000609581 -0.000327213
-1.95397e-05 0.000276576 0.000526888 0.000703839 0.00078801 0.000776041 0.000649981 0.000516369
5.30335e-05 5.62465e-05 6.17103e-05 7.00406e-05 8.17134e-05 9.7088e-05 0.000116474 0.000140246
0.000169014 0.000203909 0.000246934 0.000302059 0.000375025 0.000484957 0.000634512 0.00102192
0.00142156 0.00226067 0.00333026 0.00425931 0.00478991 0.00460301 0.00355379 0.00177487
-0.000369631 -0.00241849 -0.00396853 -0.00479366 -0.00488892 -0.00443001 -0.00367526 -0.00286106
-0.002138 -0.00156545 -0.0011468 -0.000870461 -0.000730238 -0.000722122 -0.000831753 -0.0010279
-0.00126671 -0.00150134 -0.00169012 -0.00179974 -0.00180613 -0.00168378 -0.00143602 -0.000831669
-0.000234143 0.00138638 0.00466907 0.00805687 0.0102259 0.0102736 0.00820015 0.0047862
0.00110655 -0.00196036 -0.0039787 -0.00492911 -0.00503018 -0.00455249 -0.00371062 -0.00264287
-0.00144271 -0.00019812 0.000988272 0.00200349 0.00274386 0.00313666 0.00315419 0.00281676
0.00218622 0.00135405 0.00042749 -0.000483781 -0.00127945 -0.00187829 -0.00222548 -0.00229694
-0.0021004 -0.00167296 -0.0010756 -0.000385168 0.000314994 0.000944727 0.00143591 0.00173952
0.00183021 0.00170801 0.00139712 0.000942032 0.00040154 -0.000158561 -0.000673283 -0.0010858
-0.00135354 -0.00145243 -0.00137878 -0.00114884 -0.000796032 -0.00036642 8.71415e-05 0.000511333
0.000858499 0.00109186 0.00118929 0.00114519 0.000970495 0.000690709 0.000342372 -3.15815e-05
-0.000387021 -0.000683749 -0.000889964 -0.000985587 -0.000964111 -0.000832813 -0.000611378 -0.000329154
-2.14034e-05 0.000274985 0.000525722 0.000703187 0.000787899 0.000776433 0.000650753 0.000517453
5.27466e-05 5.59254e-05 6.13297e-05 6.95655e-05 8.10984e-05 9.62748e-05 0.000115386 0.000138778
0.000167012 0.000201123 0.000242957 0.000296005 0.000365748 0.000465745 0.000609479 0.00086628
0.00126848 0.00180754 0.0023943 0.00288546 0.00318841 0.0032256 0.00289827 0.00210382
0.000813145 -0.000848719 -0.0025874 -0.00401844 -0.00481148 -0.00482614 -0.00416603 -0.00312127
-0.00203344 -0.00115932 -0.00060315 -0.00033755 -0.000277082 -0.000345948 -0.000502743 -0.000726006
-0.000989784 -0.00125371 -0.00147068 -0.00159973 -0.0016131 -0.0014906 -0.00122137 -0.000739365
4.35189e-05 0.00110875 0.00259739 0.00461121 0.00679891 0.00835516 0.00844511 0.00672857
0.00358891 -6.09836e-05 -0.00322403 -0.00522606 -0.00588616 -0.00543291 -0.00428554 -0.00284565
-0.0013869 -4.9127e-05 0.00110874 0.00205091 0.0027344 0.00311051 0.00314455 0.00283611
0.00222851 0.00140452 0.000472293 -0.000452615 -0.0012637 -0.00187588 -0.00223303 -0.00231134
-0.00211916 -0.001694 -0.00109692 -0.000404762 0.000298946 0.000933607 0.00143045 0.00173974
0.00183549 0.00171725 0.00140894 0.000954937 0.000414089 -0.000147653 -0.000665038 -0.00108089
-0.00135225 -0.00145462 -0.00138394 -0.00115617 -0.000804547 -0.00037508 7.93151e-05 0.000505151
0.000854526 0.00109037 0.00119025 0.0011483 0.000975256 0.00069646 0.000348399 -2.59712e-05
-0.000382429 -0.000680623 -0.000888558 -0.000985947 -0.000966081 -0.000836068 -0.000615475 -0.000333588
-2.56695e-05 0.000271338 0.000523041 0.000701688 0.000787639 0.000777325 0.000652511 0.000519924
5.22564e-05 5.53775e-05 6.06809e-05 6.8757e-05 8.00537e-05 9.48967e-05 0.000113548 0.000136306
0.000163656 0.000196487 0.000236395 0.000286251 0.000350774 0.000438935 0.000564146 0.000753292
0.00101292 0.00131771 0.00166027 0.00199999 0.00227011 0.00237946 0.00224121 0.00179804
0.00103052 -3.7664e-05 -0.00132194 -0.00265356 -0.00378287 -0.00443767 -0.00442928 -0.00375401
-0.00262257 -0.00138447 -0.000380649 0.000192205 0.000329493 0.00016338 -0.00014303 -0.000477088
-0.000793082 -0.00107927 -0.00131988 -0.00148274 -0.00153117 -0.00143791 -0.00118809 -0.000760437
-0.000117279 0.000775782 0.00190821 0.0032067 0.00460253 0.00590033 0.0067035 0.00652226
0.00504507 0.00239109 -0.000847699 -0.00382237 -0.00577702 -0.0063352 -0.0055849 -0.00395588
-0.00199118 -0.000141985 0.00133308 0.00235757 0.00296341 0.0032129 0.00315414 0.00281636
0.00222878 0.00144175 0.000535514 -0.000386635 -0.00121553 -0.00185559 -0.00223993 -0.00233812
-0.00215679 -0.00173488 -0.0011359 -0.000438706 0.000272007 0.000915031 0.00142108 0.00173972
0.00184411 0.00173292 0.00142938 0.000977494 0.000436108 -0.000128524 -0.000650617 -0.00107232
-0.00134996 -0.00145834 -0.00139279 -0.00116878 -0.000819245 -0.00039007 6.57269e-05 0.000494374
0.000847546 0.00108767 0.0011918 0.00115362 0.000983452 0.000706409 0.000358856 -1.62216e-05
-0.000374436 -0.000675165 -0.000886073 -0.000986514 -0.000969435 -0.000841658 -0.000622543 -0.000341263
-3.30716e-05 0.000264996 0.000518372 0.000699065 0.000787162 0.000778842 0.000655532 0.00052418
5.15148e-05 5.45497e-05 5.97028e-05 6.75412e-05 7.84877e-05 9.28379e-05 0.000110813 0.000132649
0.000158725 0.000189746 0.00022698 0.000272629 0.000330285 0.000405796 0.000507985 0.000649576
0.000830851 0.00103073 0.00124401 0.00144349 0.00159881 0.00167545 0.00162923 0.00140773
0.000965018 0.00028375 -0.000607175 -0.00162532 -0.00263621 -0.00346341 -0.00391595 -0.00384225
-0.0032024 -0.00212253 -0.000884415 0.000168478 0.000771247 0.000844937 0.000505645 -2.57337e-05
-0.000546951 -0.00095078 -0.00122087 -0.0013771 -0.00142662 -0.00135223 -0.00112872 -0.00073837
-0.000172179 0.000539016 0.00139128 0.00235934 0.0033704 0.00430823 0.00500648 0.00524149
0.00476583 0.00341188 0.0012311 -0.00142263 -0.00394813 -0.00569372 -0.00620619 -0.00540462
-0.00359324 -0.00131804 0.000849748 0.00249695 0.00344903 0.00374169 0.0035284 0.0029839
0.00224546 0.00140164 0.000512151 -0.000365735 -0.00116303 -0.00180232 -0.00221319 -0.0023498
-0.00220271 -0.00180107 -0.00120642 -0.000501145 0.000224637 0.000885024 0.00140787 0.00174149
0.00185853 0.00175733 0.00146065 0.00101203 0.000470098 -9.86786e-05 -0.000627853 -0.00105859
-0.00134603 -0.00146385 -0.00140634 -0.00118821 -0.000841928 -0.000413248 4.46458e-05 0.000477552
0.000836518 0.00108323 0.00119396 0.00116164 0.00099601 0.000721744 0.000375031 -1.09151e-06
-0.000361978 -0.000666587 -0.000882073 -0.000987235 -0.000974494 -0.000850215 -0.000633425 -0.000353117
-4.45316e-05 0.000255154 0.000511095 0.000694934 0.000786339 0.000781105 0.000660137 0.000530713
5.04699e-05 5.33856e-05 5.83315e-05 6.58428e-05 7.63093e-05 8.99884e-05 0.00010705 0.000127653
0.000152054 0.000180744 0.000214632 0.000255264 0.000305083 0.000367723 0.000448237 0.000552569
0.000675038 0.000801248 0.000933827 0.00105929 0.00115781 0.00120349 0.00116786 0.00102357
0.000746726 0.000320052 -0.000259222 -0.000967279 -0.00174287 -0.00248481 -0.00306165 -0.0033345
-0.00319247 -0.00259828 -0.00163064 -0.000496959 0.000510532 0.00111641 0.00117892 0.000754019
6.08289e-05 -0.000634203 -0.00114 -0.00139578 -0.00143921 -0.00133209 -0.00110573 -0.000754729
-0.00026655 0.000340145 0.00104332 0.0018017 0.00256531 0.00326473 0.00380477 0.00406687
0.00392129 0.00325216 0.00200192 0.000231596 -0.0018298 -0.00378913 -0.00517453 -0.00558737
-0.0048594 -0.00313741 -0.000847762 0.00144781 0.00324013 0.00422209 0.00434389 0.00376837
0.00276589 0.00160491 0.000482347 -0.00049288 -0.00127664 -0.00185359 -0.00221112 -0.00233288
-0.00220815 -0.00184631 -0.00128627 -0.000595984 0.000137335 0.000821961 0.00137639 0.00174056
0.00188204 0.00179742 0.00150984 0.00106406 0.000519815 -5.55818e-05 -0.000594903 -0.00103832
-0.00133966 -0.00147107 -0.00142536 -0.00121603 -0.000874786 -0.000447099 1.36427e-05 0.000452629
0.000819991 0.0010763 0.00119667 0.00117294 0.00101398 0.000743872 0.000398533 2.10483e-05
-0.000343595 -0.00065378 -0.000875915 -0.000987981 -0.000981605 -0.000862476 -0.000649132 -0.000370307
-6.12202e-05 0.000240747 0.000500361 0.000688744 0.000784954 0.000784225 0.000666699 0.000540114
4.90687e-05 5.18289e-05 5.65048e-05 6.35917e-05 7.34386e-05 8.62571e-05 0.000102159 0.00012122
0.000143563 0.000169467 0.000199487 0.000234585 0.000276245 0.000326542 0.000388113 0.000463703
0.000546856 0.000627456 0.000708125 0.000780317 0.000833076 0.000852703 0.000822591 0.000724116
0.00053947 0.000255792 -0.00013066 -0.000610649 -0.00115775 -0.00172389 -0.00223727 -0.00260665
-0.00273546 -0.00254599 -0.00201046 -0.00118129 -0.000206758 0.000686282 0.001254 0.00132904
0.000903137 0.000145302 -0.000668273 -0.00127913 -0.00155194 -0.00149864 -0.00121913 -0.000813889
-0.000340401 0.000196471 0.000786192 0.00140315 0.00200699 0.00254578 0.00295855 0.00317727
0.00313094 0.00275496 0.00200735 0.000891372 -0.000518657 -0.00205702 -0.00346686 -0.00443714
-0.00468058 -0.00403445 -0.00254434 -0.000487677 0.00168648 0.00348661 0.00452852 0.00464583
0.00391914 0.00261958 0.00109894 -0.000323885 -0.0014376 -0.002157 -0.00249499 -0.00251436
-0.00228579 -0.00186725 -0.00130465 -0.000643781 5.871e-05 0.000733142 0.00130449 0.0017058
0.00189135 0.00184514 0.00158261 0.00114651 0.000598713 1.05688e-05 -0.000546682 -0.00101012
-0.00133148 -0.00148145 -0.00145161 -0.00125431 -0.000920275 -0.00049441 -3.01506e-05 0.000416988
0.000795886 0.00106556 0.00119945 0.00118793 0.00103857 0.00077461 0.000431506 5.23635e-05
-0.000317376 -0.000635273 -0.000866678 -0.000988421 -0.00099102 -0.000879221 -0.000670866 -0.000394299
-8.4678e-05 0.000220355 0.000485026 0.00067972 0.000782644 0.000788246 0.000675618 0.000553106
4.7262e-05 4.98286e-05 5.41694e-05 6.07317e-05 6.98175e-05 8.15885e-05 9.6096e-05 0.000113331
0.000133292 0.000156062 0.00018189 0.000211265 0.000244958 0.00028401 0.00032964 0.000382888
0.000437677 0.000487096 0.000534076 0.000573333 0.000597885 0.000599027 0.000566811 0.000490735
0.000360587 0.000167787 -9.23775e-05 -0.00041771 -0.00079595 -0.00120228 -0.00159807 -0.00193138
-0.00214055 -0.0021627 -0.00194838 -0.00148118 -0.00079823 -3.43429e-06 0.000737625 0.00123133
0.00131893 0.000949464 0.000224715 -0.000620571 -0.00130833 -0.00163443 -0.00154609 -0.00113398
-0.000581904 1.00309e-05 0.000601374 0.00115504 0.00164868 0.00206175 0.00236677 0.00252765
0.002504 0.00225889 0.0017682 0.00103102 8.0376e-05 -0.0010071 -0.0021059 -0.00304582
-0.0036318 -0.00368291 -0.00308679 -0.00185464 -0.000153891 0.00170382 0.0033276 0.00435123
0.00454174 0.00387149 0.00252478 0.000835951 -0.000815837 -0.00211437 -0.00287857 -0.00307981
-0.00280935 -0.00221936 -0.0014653 -0.000669958 8.55288e-05 0.000751143 0.00129138 0.00167407
0.00186957 0.00185816 0.00163976 0.00124002 0.000709635 0.000117151 -0.000462113 -0.000957733
-0.00131381 -0.0014952 -0.00149014 -0.00130962 -0.000984343 -0.000559783 -9.02188e-05 0.000367799
0.000761835 0.00104923 0.00120147 0.00120684 0.00107108 0.000816057 0.000476517 9.55628e-05
-0.000280749 -0.000608892 -0.000852815 -0.0009878 -0.00100284 -0.000901328 -0.000700099 -0.000426918
-0.000116849 0.000192114 0.000463477 0.000666661 0.000778746 0.000793109 0.000687386 0.000570626
4.501e-05 4.73459e-05 5.12887e-05 5.72311e-05 6.54239e-05 7.59779e-05 8.88871e-05 0.000104068
0.000121412 0.000140841 0.000162368 0.000186134 0.000212427 0.000241645 0.000274223 0.000310387
0.000344963 0.000373308 0.000397993 0.000415663 0.000422097 0.000412129 0.000379789 0.000318662
0.000222542 8.63498e-05 -9.27687e-05 -0.000314155 -0.000572108 -0.000854225 -0.00114001 -0.00140039
-0.00159882 -0.00169443 -0.00164799 -0.00143082 -0.00103662 -0.000493844 0.000125196 0.000704945
0.00110386 0.00119199 0.000903239 0.00028228 -0.000503263 -0.00120683 -0.00159516 -0.00154543
-0.00112652 -0.00051705 0.000181824 0.000851907 0.00141116 0.00181758 0.00206045 0.00214452
0.00207599 0.00185577 0.00148133 0.000954431 0.000290972 -0.000470699 -0.00126523 -0.00200087
-0.00256608 -0.00284324 -0.0027299 -0.00216652 -0.00116571 0.00016597 0.00162574 0.00294112
0.00382639 0.00405744 0.00354209 0.00235969 0.000751357 -0.000940262 -0.00236343 -0.00325067
-0.00348151 -0.00309588 -0.00225922 -0.00119755 -0.000129317 0.000783105 0.00145147 0.00185227
0.00200269 0.00193622 0.00168807 0.00129234 0.000786863 0.000218984 -0.000353203 -0.000865876
-0.00125909 -0.00148729 -0.00152725 -0.00138134 -0.00107596 -0.000656282 -0.000178852 0.000296336
0.000713239 0.00102595 0.00120319 0.001231 0.00111328 0.000870469 0.000536434 0.00015402
-0.000230224 -0.000571534 -0.000832028 -0.000984838 -0.00101681 -0.000929493 -0.000738351 -0.000470354
-0.000160348 0.000153336 0.000433359 0.000647872 0.000772378 0.000798694 0.000702452 0.000593508
4.22901e-05 4.43626e-05 4.78523e-05 5.30929e-05 6.0283e-05 6.94853e-05 8.06452e-05 9.36206e-05
0.000108223 0.000124261 0.000141583 0.000160103 0.000179807 0.00020073 0.000222894 0.000246163
0.000266379 0.000280532 0.000290813 0.000295109 0.000290814 0.00027481 0.000243593 0.00019348
0.000120924 2.29717e-05 -0.000102113 -0.000254078 -0.000429833 -0.00062262 -0.000821293 -0.00100987
-0.00116763 -0.00127013 -0.00129161 -0.00120893 -0.00100719 -0.000686709 -0.000270115 0.000192305
0.000622412 0.000923041 0.000998938 0.000789284 0.000303706 -0.000355122 -0.00100197 -0.00142337
-0.00145767 -0.00115504 -0.000581681 0.000141133 0.000871252 0.00148049 0.00188236 0.00204308
0.00197525 0.00172027 0.0013285 0.000844848 0.000303974 -0.000265908 -0.000834561 -0.00136179
-0.00179404 -0.00206749 -0.00211731 -0.00189152 -0.00136697 -0.000564564 0.000440032 0.00151459
0.00248198 0.00314791 0.00334258 0.0029681 0.00203755 0.000690504 -0.00082557 -0.00220809
-0.00317351 -0.0035307 -0.00322972 -0.00236995 -0.00116567 0.000117783 0.00123478 0.0020144
0.00238514 0.00236741 0.00204367 0.00152127 0.000902283 0.000267684 -0.000324233 -0.000831185
-0.00121938 -0.00146041 -0.00153372 -0.00143251 -0.00116907 -0.000776437 -0.00030507 0.000184508
0.000631056 0.000981503 0.00119772 0.00126034 0.00116973 0.000944455 0.00061785 0.000233267
-0.000161457 -0.000519722 -0.00080145 -0.000977372 -0.00103186 -0.000964087 -0.000787469 -0.000527537
-0.000218549 0.000100794 0.000391915 0.000621131 0.000761814 0.000803837 0.000720427 0.000622366
3.91045e-05 4.08886e-05 4.38841e-05 4.83638e-05 5.44757e-05 6.22415e-05 7.157e-05 8.22816e-05
9.414e-05 0.000106887 0.000120276 0.000134092 0.000148159 0.000162327 0.000176431 0.000190209
0.000200469 0.000205344 0.000206625 0.000203019 0.000192971 0.000174653 0.000146039 0.000105034
4.96663e-05 -2.16476e-05 -0.000109773 -0.000214466 -0.000333928 -0.00046434 -0.000599447 -0.000730278
-0.000845126 -0.000929925 -0.000969181 -0.000947634 -0.00085279 -0.000678302 -0.000427938 -0.000119503
0.000212367 0.000516226 0.000728583 0.000785297 0.000640133 0.000287735 -0.000216278 -0.000751761
-0.00112497 -0.00124257 -0.00108012 -0.000649064 -2.39076e-05 0.000674276 0.0013078 0.0017563
0.00194422 0.00185401 0.00152239 0.00102302 0.00044303 -0.000138081 -0.000660974 -0.0010885
-0.00139958 -0.00157997 -0.00161517 -0.00148897 -0.00118835 -0.000712812 -8.46409e-05 0.000643532
0.00138706 0.00203553 0.00246753 0.00257313 0.00228065 0.00158241 0.000551401 -0.000658376
-0.0018332 -0.00274126 -0.00318654 -0.00306035 -0.00237452 -0.00126412 4.34096e-05 0.00128448
0.00222424 0.00271052 0.00270138 0.0022607 0.00152681 0.000667665 -0.000161934 -0.000848974
-0.00133187 -0.00159395 -0.0016485 -0.00152356 -0.00125235 -0.000870394 -0.000417077 6.23842e-05
0.000517707 0.000898178 0.00115995 0.00127356 0.00122906 0.00103754 0.00072874 0.000345797
-6.13513e-05 -0.000442732 -0.00075431 -0.000962696 -0.00104834 -0.00100707 -0.000849884 -0.000600977
-0.000294331 3.07756e-05 0.00033455 0.0005816 0.000743103 0.000806506 0.000741587 0.000659383
3.5487e-05 3.69688e-05 3.94481e-05 4.31379e-05 4.81405e-05 5.44453e-05 6.19397e-05 7.0428e-05
7.96574e-05 8.93459e-05 9.92087e-05 0.000108978 0.000118411 0.000127284 0.000135374 0.000142407
0.000146039 0.000145179 0.000141246 0.000133483 0.000120996 0.000102757 7.76425e-05 4.45184e-05
2.34424e-06 -4.96752e-05 -0.000111905 -0.000184066 -0.000264996 -0.000352418 -0.000442723 -0.000530819
-0.000610091 -0.000672543 -0.000709197 -0.000710824 -0.000669078 -0.000578047 -0.000436198 -0.000248523
-2.85545e-05 0.00020035 0.000405262 0.000546456 0.000583626 0.00048593 0.000245195 -0.000111174
-0.000486211 -0.00077846 -0.000931856 -0.000888394 -0.000628019 -0.000178351 0.000386482 0.00095944
0.00142415 0.0016824 0.00167787 0.00140909 0.000928015 0.00032508 -0.000294147 -0.00083324
-0.0012231 -0.00142976 -0.00145156 -0.00130902 -0.00103274 -0.000654219 -0.000202491 0.000293432
0.000798932 0.00126866 0.00164539 0.00186492 0.00186694 0.00160994 0.00108692 0.000337372
-0.000548429 -0.00143643 -0.00216832 -0.00259169 -0.00259538 -0.00214134 -0.0012833 -0.000164507
0.00100781 0.00200694 0.00263904 0.0027889 0.00244582 0.00170228 0.000726326 -0.000283136
-0.00114423 -0.00172952 -0.001984 -0.00192195 -0.00160787 -0.00113055 -0.000579519 -3.00122e-05
0.000462264 0.000859075 0.00113486 0.00127324 0.00126671 0.00111901 0.000847897 0.000485941
7.79072e-05 -0.000325105 -0.000673327 -0.00092578 -0.0010558 -0.00105375 -0.000926913 -0.0006972
-0.00039743 -6.69036e-05 0.000253179 0.000524617 0.000714693 0.00080677 0.00076608 0.000703873
3.15072e-05 3.26862e-05 3.46501e-05 3.75562e-05 4.14676e-05 4.6352e-05 5.20898e-05 5.84896e-05
6.53083e-05 7.22741e-05 7.91079e-05 8.55406e-05 9.13234e-05 9.62277e-05 0.000100036 0.000102516
0.000102017 9.79557e-05 9.14184e-05 8.19931e-05 6.92001e-05 5.2496e-05 3.12986e-05 5.03232e-06
-2.68069e-05 -6.45678e-05 -0.000108342 -0.000157848 -0.000212306 -0.000270317 -0.000329751 -0.000387674
-0.000440331 -0.000483207 -0.000511214 -0.00051902 -0.000501568 -0.000454788 -0.000376511 -0.000267523
-0.000132659 1.8261e-05 0.000169952 0.000302032 0.00039069 0.000412093 0.000347678 0.000191284
-3.23236e-05 -0.000270736 -0.000485172 -0.000624202 -0.000643084 -0.000514858 -0.000240024 0.000148415
0.000587093 0.000992491 0.00127784 0.00137311 0.00124289 0.000897133 0.000391064 -0.000186101
-0.000730982 -0.00114896 -0.00137396 -0.0013799 -0.00118149 -0.000825358 -0.000375426 0.000102461
0.000551951 0.0009313 0.0012124 0.00137617 0.00140788 0.00129539 0.00103176 0.000621678
8.91492e-05 -0.000516728 -0.00112128 -0.00163106 -0.00194817 -0.00199017 -0.00171148 -0.00112102